-4.702364784100000179e+02
-4.702364797500000009e+02
-4.702364823300000012e+02
-4.702364862800000083e+02
-4.702364916700000208e+02
-4.702364985899999965e+02
