-1.760130058996184777e-04 1.718919999856637071e-01 -1.026000170727380803e-03 -2.799813158373175978e-05 -2.343299998471414652e-02 1.742300002356123034e-02 1.860000062567967517e-04 -1.389999867029057706e-04 -7.710000008878492399e-04 2.599995718330540143e-05 5.700000020193255476e-04 5.299999928712416359e-05 1.377000216144022571e-03 -2.781999894818295693e-03 1.039999995178033298e-03 -2.176900059504809429e-02 9.180998371576687064e-03 1.799200011099105073e-02 2.034299920008935184e-02 1.188200155641220938e-02 1.788599987584092721e-02 3.600001125951629658e-05 -8.099999634835499090e-05 9.299999998821942239e-04 -8.200001173669530256e-05 1.129999932209677040e-04 -5.779999996602448210e-04 1.629999700902922918e-04 4.470000130329378164e-04 7.059999986537658168e-04 7.899996935994149866e-05 3.220000048370686460e-04 -1.139000000757706870e-03 -1.610000298876273768e-04 4.469999885327298559e-04 7.100000004421989225e-04 1.316000202812665429e-03 -2.604999899421752991e-03 1.049999995337943387e-03 1.869999895851033177e-04 2.050000150638220929e-04 9.219999987630173380e-04 -4.189999886662526844e-04 -1.130000311846448007e-04 5.050000024256924829e-04 -1.082999775082613613e-03 -2.928000081279267218e-03 6.290000089027138544e-04 -2.880996757830862984e-03 -3.977500017555025968e-02 4.238800005563301415e-02 -2.139000468040067483e-03 -1.347000264905158897e-03 -1.032479999868475551e-01 2.877000095648952517e-03 1.580002370593580564e-04 1.949299998396155156e-02 2.130000251711743845e-03 -1.908999819484384630e-03 1.944499999014956404e-02 4.430002870595023423e-04 -2.341999946602156893e-03 1.991599999989407399e-02 -2.193999888330435116e-03 -1.500014593027541882e-05 2.002500001212554823e-02 2.029999919361497734e-03 2.550000173836583332e-03 2.032999998624756069e-02 -2.789999065270973018e-04 2.409999991124302276e-04 2.023600000129931187e-02 1.377000169862506408e-03 -8.039998761223221633e-04 1.975699999320225733e-02 4.960001365302441631e-04 -3.939999431731074520e-04 1.933599999765570759e-02 -1.363999796625537308e-03 -1.249000083450827739e-03 1.973100000877667931e-02 -4.969995342737328157e-04 -4.764000018510674769e-03 1.909900000750201776e-02 1.521300124447253106e-02 -1.583599884096936403e-02 8.476999931844647271e-03 1.942000317221388413e-03 -2.712999832851827661e-03 2.029699999199039220e-02 -1.215999902198456944e-03 1.779999281679677241e-04 2.015700000653434729e-02 -1.594799897347714060e-02 -1.296400119781767994e-02 8.343000100980090331e-03 -2.865299849711053573e-02 -2.036900217384205944e-02 -6.815999821493465803e-03 1.195500058890180441e-02 -7.443999091151520114e-03 4.693999941445764143e-03 1.304999875644492074e-03 1.750000785890949468e-04 -2.013100000737821568e-02 1.539800078967615456e-02 -1.274999886704272778e-02 -3.163300007225906124e-02 1.938000347486179206e-03 -6.126999874401960720e-03 -2.099700000457736110e-02 -1.348001035342138434e-03 1.399999990229959523e-02 4.253999993456494648e-03 -1.932999981154466616e-03 -1.765000166938957308e-03 -2.076899998756710081e-02 1.347999952983268152e-03 -8.399999180549179130e-04 -2.002700000660170843e-02 -2.370001281191387121e-04 2.659999625316028689e-04 -1.956599999895749717e-02 -1.230001497899265914e-04 5.139999706260446090e-04 -2.009399999983448037e-02 -5.099995390517030486e-05 -2.098000024229231507e-03 -2.039499999762284591e-02 4.020000673488256944e-04 -2.340999989448309167e-03 -1.987399999988061217e-02 2.136999816627266780e-03 9.160001409750725835e-04 -2.067000001271090265e-02 3.599993560429572359e-05 -6.740000181548347433e-04 -2.090099999952547277e-02 -2.136000010678771981e-03 -1.332000181708556689e-03 -2.018499998687908747e-02 -3.399679710678433706e-05 -4.212799999954171259e-02 3.033000042268343445e-03
-1.750129991630056938e-04 1.718029999857403622e-01 -1.025000170644000752e-03 -2.699813285453429724e-05 -2.341699998464950513e-02 1.741200002353972612e-02 1.860000061701267684e-04 -1.379999867049035243e-04 -7.730000008888481640e-04 2.399995718882526663e-05 5.700000018690639086e-04 5.399999929816387323e-05 1.373000215917131919e-03 -2.778999895120816323e-03 1.039999995197116124e-03 -2.175200059480077164e-02 9.176998372852412586e-03 1.798200011090120981e-02 2.032899920063367671e-02 1.187400155534239742e-02 1.787499987592619868e-02 3.700001132962668805e-05 -8.199999627372360630e-05 9.289999998776732933e-04 -8.200001157991493859e-05 1.109999932219665850e-04 -5.769999996582471542e-04 1.639999700792525901e-04 4.470000131065703227e-04 7.039999986482458781e-04 7.999996951672187339e-05 3.200000049136978385e-04 -1.138000000761228876e-03 -1.630000298175169769e-04 4.459999883804704416e-04 7.090000004542375538e-04 1.311000202504624930e-03 -2.600999899800902730e-03 1.048999995361547203e-03 1.899999896441740318e-04 2.040000152877162411e-04 9.189999987474566871e-04 -4.189999886772924104e-04 -1.130000311866425516e-04 5.030000024256924343e-04 -1.081999775374094946e-03 -2.924000081201638679e-03 6.310000088931985111e-04 -2.877996760545808042e-03 -3.974100017534934470e-02 4.236200005558249382e-02 -2.131000468522025511e-03 -1.338000264264157212e-03 -1.032119999869006849e-01 2.878000095442493234e-03 1.600002371249995806e-04 1.948299998395403715e-02 2.123000251499764911e-03 -1.906999820024784121e-03 1.943399999018620428e-02 4.410002869121140072e-04 -2.340999946766403415e-03 1.990299999990411545e-02 -2.183999888326563187e-03 -1.600014518695823623e-05 2.001200001207134593e-02 2.024999919771120361e-03 2.544000173450440463e-03 2.032199998628115081e-02 -2.809999062262239834e-04 2.359999989471854706e-04 2.022200000131534406e-02 1.377000169730029913e-03 -8.039998761462951744e-04 1.973299999320225762e-02 5.000001359991846890e-04 -3.879999428845706962e-04 1.932199999762763618e-02 -1.365999796691775604e-03 -1.249000083614074759e-03 1.971900000878772097e-02 -4.979995345834213128e-04 -4.761000018601287652e-03 1.908400000750453893e-02 1.520000124316473779e-02 -1.581899884195655387e-02 8.472999931899424103e-03 1.947000316684809182e-03 -2.706999832488659902e-03 2.028199999195679989e-02 -1.215999902323765995e-03 1.789999281589778422e-04 2.014800000653334602e-02 -1.593399897463919357e-02 -1.294900119676385165e-02 8.338000100887829266e-03 -2.863199849873023992e-02 -2.034700217224583510e-02 -6.807999821631357910e-03 1.195300058833375333e-02 -7.436999091309772804e-03 4.686999941449812059e-03 1.300999875839911613e-03 1.730000782945649541e-04 -2.012300000735413666e-02 1.538200078873324696e-02 -1.273599886823183723e-02 -3.161200007218472469e-02 1.935000346882784737e-03 -6.117999874614868210e-03 -2.098300000456979411e-02 -1.344001035013665628e-03 1.399499990259312626e-02 4.244999993439409029e-03 -1.929999981250528698e-03 -1.763000166702077733e-03 -2.075899998758565929e-02 1.344999953125136693e-03 -8.409999182698219868e-04 -2.001500000658415143e-02 -2.310001279016399398e-04 2.639999629973709236e-04 -1.955399999898861652e-02 -1.200001497292081882e-04 5.139999708639230109e-04 -2.008299999985103945e-02 -5.399995375226206569e-05 -2.099000024442138155e-03 -2.038099999760528691e-02 3.970000677396643557e-04 -2.344999989810478327e-03 -1.985799999984901726e-02 2.134999816970074762e-03 9.130001408447883807e-04 -2.064900001269686508e-02 4.099993541604392456e-05 -6.710000177696913643e-04 -2.089399999955606629e-02 -2.134000010769314306e-03 -1.330000181546308387e-03 -2.017399998689212506e-02 -4.099679986811257933e-05 -4.209200000007811554e-02 3.026000042271022664e-03
-1.760129841070645510e-04 1.716039999856657505e-01 -1.024000170439704187e-03 -2.499813495726967079e-05 -2.338999998450923268e-02 1.740100002350171773e-02 1.870000060188662511e-04 -1.359999866292732726e-04 -7.730000008963658050e-04 2.199995734008578337e-05 5.680000017178034539e-04 5.399999931120133659e-05 1.369000215609090902e-03 -2.774999895424336456e-03 1.038999995215200050e-03 -2.172700059425644939e-02 9.168998374732182169e-03 1.797100011077120210e-02 2.030699920162074013e-02 1.186000155366554766e-02 1.786199987606161901e-02 3.700001141077680154e-05 -8.299999627272471449e-05 9.299999998786721931e-04 -8.000001119624379486e-05 1.059999933742259890e-04 -5.759999996642925328e-04 1.649999700792525602e-04 4.470000131822005800e-04 7.039999986427260964e-04 7.699996960891171448e-05 3.190000046898036688e-04 -1.135000000743670474e-03 -1.640000295906262023e-04 4.429999883048401656e-04 7.090000004627539619e-04 1.308000202283253867e-03 -2.597999900026794987e-03 1.049999995375110054e-03 1.909999895685437717e-04 2.050000153633464955e-04 9.189999987409379215e-04 -4.179999886607328784e-04 -1.130000311080156679e-04 5.060000024201727255e-04 -1.081999775449725204e-03 -2.923000081201638546e-03 6.310000088921996356e-04 -2.875996765385567880e-03 -3.968000017523903855e-02 4.232100005551051730e-02 -2.125000468321662853e-03 -1.337000263760431979e-03 -1.031619999869348159e-01 2.874000095333743756e-03 1.610002368164852688e-04 1.947699998397511845e-02 2.120000251391016000e-03 -1.905999820257668013e-03 1.942799999020176568e-02 4.410002867387740407e-04 -2.338999946770398651e-03 1.989899999990211651e-02 -2.184999888488863180e-03 -1.400014526458625510e-05 2.001000001207486889e-02 2.026999919975932055e-03 2.541000173597705511e-03 2.031799998627310810e-02 -2.809999061136024827e-04 2.339999989401933208e-04 2.021500000131734240e-02 1.376000169599201055e-03 -8.029998762319141619e-04 1.972299999320677871e-02 5.010001358959551140e-04 -3.869999428139348462e-04 1.931699999762111902e-02 -1.363999796800524937e-03 -1.248000083468807581e-03 1.971300000877568293e-02 -4.999995349135416241e-04 -4.757000018757542338e-03 1.907900000751158037e-02 1.517200124134573773e-02 -1.579399884406121335e-02 8.485999932029008805e-03 1.946000316430319260e-03 -2.703999832569283814e-03 2.027699999195932412e-02 -1.214999902432515244e-03 1.799999282286148710e-04 2.014200000652682787e-02 -1.591099897583659467e-02 -1.293200119500837429e-02 8.354000100743890975e-03 -2.860599850008441539e-02 -2.032800217026446005e-02 -6.792999821793853539e-03 1.195000058802019385e-02 -7.432999091538662097e-03 4.684999941462375528e-03 1.299999875819479690e-03 1.740000782289234486e-04 -2.011300000734961638e-02 1.536000078767220042e-02 -1.271999886986873406e-02 -3.158500007207927507e-02 1.927000346074578827e-03 -6.105999875201930868e-03 -2.096500000453762128e-02 -1.342001034495293775e-03 1.398799990274238875e-02 4.242999993435362521e-03 -1.921999981610472566e-03 -1.757000166080054755e-03 -2.074199998763581049e-02 1.342999953191375108e-03 -8.409999184090959957e-04 -2.000300000657311006e-02 -2.310001278298818292e-04 2.639999630103563588e-04 -1.954099999898861739e-02 -1.190001495762999737e-04 5.129999709535375003e-04 -2.006899999985556002e-02 -5.599995385936373164e-05 -2.097000024585407400e-03 -2.037299999759624447e-02 3.970000675955714475e-04 -2.341999989795495122e-03 -1.984299999985201374e-02 2.132999817571244218e-03 9.060001407065132939e-04 -2.063600001267883524e-02 4.299993548228218005e-05 -6.710000176064443442e-04 -2.088199999956710795e-02 -2.134000010714115839e-03 -1.330000181536319633e-03 -2.016399998689212547e-02 -4.099680463059439042e-05 -4.203100000010508847e-02 2.999000042210091255e-03
-1.760129630062226655e-04 1.713249999856657491e-01 -1.024000170161017825e-03 -2.599813845998865687e-05 -2.334499998460284192e-02 1.738300002346228681e-02 1.860000061220957990e-04 -1.369999866999091498e-04 -7.680000008898470263e-04 2.399995750238600813e-05 5.660000018710616707e-04 5.599999930215938303e-05 1.366000215236459541e-03 -2.769999895650228014e-03 1.039999995226765150e-03 -2.168400059292987028e-02 9.149998377964306887e-03 1.795100011055282899e-02 2.026399920341214259e-02 1.183500155039546656e-02 1.784399987632394324e-02 3.900001132410683302e-05 -8.199999612346195368e-05 9.279999998666334888e-04 -8.100001149324497168e-05 1.099999932995945960e-04 -5.749999996627681203e-04 1.619999703171830664e-04 4.440000129573075404e-04 7.059999986622823333e-04 7.899996960339183234e-05 3.190000048400653079e-04 -1.136000000754710170e-03 -1.610000295094760905e-04 4.419999885327298428e-04 7.100000004471932998e-04 1.306000201964173336e-03 -2.593999900181052139e-03 1.046999995382154368e-03 1.909999899466950581e-04 2.000000153633465095e-04 9.189999987459322988e-04 -4.179999887474028617e-04 -1.120000311100134217e-04 5.040000024191738015e-04 -1.078999776054767297e-03 -2.915000080974748230e-03 6.310000088676490700e-04 -2.871996771697069451e-03 -3.960100017499744440e-02 4.226000005540953008e-02 -2.127000468130692181e-03 -1.335000263849761950e-03 -1.030999999869257611e-01 2.871000095127284810e-03 1.630002365796057097e-04 1.946699998398968012e-02 2.116000251151437580e-03 -1.903999820576171217e-03 1.941199999022184472e-02 4.410002863534552022e-04 -2.334999946785381360e-03 1.988399999989811859e-02 -2.179999888496030828e-03 -1.500014490141811823e-05 1.999500001204826752e-02 2.022999920120025028e-03 2.538000173280201277e-03 2.030299998629818414e-02 -2.799999062885900870e-04 2.349999989978437899e-04 2.019700000131082265e-02 1.373000169435253243e-03 -8.019998764747870252e-04 1.970699999322233706e-02 5.010001355862665328e-04 -3.839999428289180136e-04 1.930199999761812030e-02 -1.361999796975512517e-03 -1.247000083335526909e-03 1.969500000876364329e-02 -4.989995356659720528e-04 -4.748000018694897677e-03 1.906600000749707202e-02 1.514100123920214015e-02 -1.576499884639676746e-02 8.494999932171155843e-03 1.940000316266371266e-03 -2.702999833039047665e-03 2.026099999199144561e-02 -1.211999902434163050e-03 1.789999284415213349e-04 2.012800000651126728e-02 -1.587899897775330027e-02 -1.290600119257921674e-02 8.363000100541286008e-03 -2.856899850218937512e-02 -2.029900216745016139e-02 -6.776999822027055496e-03 1.194500058773810373e-02 -7.429999091926800872e-03 4.674999941486978651e-03 1.297999876101569097e-03 1.710000780876517513e-04 -2.010300000733557940e-02 1.532900078609278002e-02 -1.269699887218430322e-02 -3.155600007193112844e-02 1.914000345104073259e-03 -6.091999876169141431e-03 -2.094900000447984592e-02 -1.340001033799709512e-03 1.397799990288266236e-02 4.231999993434310686e-03 -1.909999982197307542e-03 -1.748000165155510566e-03 -2.072499998771103885e-02 1.340999953095313012e-03 -8.389999185503678155e-04 -1.999300000656406909e-02 -2.300001277266523411e-04 2.629999630909809691e-04 -1.953599999899314002e-02 -1.200001496778817727e-04 5.149999708868971708e-04 -2.005999999985203994e-02 -5.299995418231647095e-05 -2.092000024348528078e-03 -2.036299999761779708e-02 3.960000673962799393e-04 -2.338999989866130929e-03 -1.983799999984949339e-02 2.129999818729425010e-03 8.920001404976024822e-04 -2.061800001264828958e-02 4.299993539174007715e-05 -6.690000175954566655e-04 -2.087099999956910576e-02 -2.129000010961438170e-03 -1.326000181148179495e-03 -2.015399998692371519e-02 -4.299681098295932830e-05 -4.195000000029730503e-02 2.958000042140221993e-03
-1.730129328722610231e-04 1.709269999858986089e-01 -1.018000169780024482e-03 -2.199814248659960836e-05 -2.329299998431730301e-02 1.736600002338826651e-02 1.900000053807050879e-04 -1.279999864083757760e-04 -7.790000009209162996e-04 1.999995786949759660e-05 5.610000015665428776e-04 5.399999932923318403e-05 1.361000214225666733e-03 -2.756999896033373795e-03 1.034999995241379098e-03 -2.162900059097064981e-02 9.122998382108987031e-03 1.793600011027620539e-02 2.021999920517042124e-02 1.181000154704375978e-02 1.781999987659178830e-02 3.100001183143923816e-05 -8.899999673249949406e-05 9.239999999177845322e-04 -8.500001134198444596e-05 1.079999929970735725e-04 -5.749999996386909173e-04 1.609999698672736723e-04 4.490000128686918611e-04 6.929999986628077469e-04 7.599996979329135558e-05 3.170000046201666699e-04 -1.129000000736152904e-03 -1.530000296883358881e-04 4.439999891327775180e-04 7.050000004010367402e-04 1.296000202342324596e-03 -2.598999900937354942e-03 1.046999995442347321e-03 1.929999893195735424e-04 2.080000155106114727e-04 9.149999987269016345e-04 -4.169999889317824756e-04 -1.100000310403764228e-04 4.980000024116561230e-04 -1.070999776703968065e-03 -2.907000080377696982e-03 6.230000088154990763e-04 -2.868996778185783133e-03 -3.951900017482250227e-02 4.220800005531107069e-02 -2.110000467967320607e-03 -1.333000262507111518e-03 -1.030429999870215996e-01 2.869000095291232826e-03 1.620002364443272596e-04 1.948299998400171776e-02 2.102000251426359469e-03 -1.907999821639988968e-03 1.940699999030312192e-02 4.410002858499949730e-04 -2.328999946794371636e-03 1.987499999989212826e-02 -2.177999888815111262e-03 -1.100014475315424466e-05 1.999200001203323140e-02 2.030999920147623372e-03 2.538000173890237604e-03 2.030799998625402308e-02 -2.919999063587004747e-04 2.359999980912795754e-04 2.019800000137606313e-02 1.364000169678703358e-03 -8.049998771524627872e-04 1.970999999327500973e-02 5.040001349481053154e-04 -3.759999426080204627e-04 1.929599999759357143e-02 -1.351999797331584433e-03 -1.242000082575228821e-03 1.969900000870344892e-02 -5.039995361567448529e-04 -4.741000019066057315e-03 1.907300000751768060e-02 1.510700123761720207e-02 -1.574199884894022378e-02 8.522999932335855941e-03 1.946000315688928371e-03 -2.694999832580271659e-03 2.026599999195033419e-02 -1.215999902638974358e-03 1.819999281429958264e-04 2.013200000653034977e-02 -1.583999897926260947e-02 -1.288400118960166679e-02 8.391000100304035064e-03 -2.852699850410995649e-02 -2.027200216425171370e-02 -6.754999822285858574e-03 1.194400058741902290e-02 -7.425999092005428417e-03 4.671999941488503075e-03 1.292999876068449960e-03 1.710000777035071851e-04 -2.010900000730797901e-02 1.529200078495222999e-02 -1.267899887494266728e-02 -3.151600007174487628e-02 1.909000344421176798e-03 -6.080999876520322596e-03 -2.092200000446323496e-02 -1.330001033939930220e-03 1.397999990364096230e-02 4.233999993377114517e-03 -1.898999982817261558e-03 -1.739000164312590321e-03 -2.071399998778074639e-02 1.325999953215102134e-03 -8.399999196768306951e-04 -1.998500000648027047e-02 -2.340001281898258290e-04 2.699999628004464531e-04 -1.952399999897804980e-02 -1.070001499102924439e-04 5.179999718690916043e-04 -2.006099999992679364e-02 -5.299995454390819539e-05 -2.087000024345531113e-03 -2.035999999762279355e-02 3.880000671693891899e-04 -2.335999990471173023e-03 -1.983799999980832840e-02 2.123999819352674796e-03 8.850001400608018681e-04 -2.060100001260817965e-02 4.599993474970672658e-05 -6.600000173615737636e-04 -2.086399999959465471e-02 -2.124000010826737096e-03 -1.328000180773024992e-03 -2.015699998694931924e-02 -4.499681858956722539e-05 -4.185300000049751307e-02 2.909000042054370964e-03
-1.660128868780246826e-04 1.703189999864300197e-01 -1.016000169211346517e-03 -3.099815069824955077e-05 -2.318799998504691984e-02 1.731700002333306371e-02 1.830000058140549425e-04 -1.329999869277988082e-04 -7.690000008772829906e-04 1.399995740632407192e-05 5.680000011247479013e-04 6.599999935536018665e-05 1.361000214332768561e-03 -2.758999896041365064e-03 1.026999995243376871e-03 -2.153100058817892376e-02 9.081998389464815413e-03 1.788000010977621249e-02 2.011699921042647485e-02 1.173700153920589732e-02 1.777199987723325492e-02 3.800001098294681322e-05 -7.799999620608436392e-05 9.209999998681579238e-04 -8.000001148220526204e-05 1.099999933772226042e-04 -5.729999996682880702e-04 1.559999703376147647e-04 4.430000124935371637e-04 6.959999986964003063e-04 8.699996938202090115e-05 3.220000054461062060e-04 -1.135000000801865676e-03 -1.470000292715456047e-04 4.389999895935512309e-04 7.120000003729119471e-04 1.290000200645339667e-03 -2.576999901397129204e-03 1.040999995453491256e-03 1.859999900388848641e-04 1.990000149881918524e-04 9.219999987745304808e-04 -4.219999879651487062e-04 -1.230000314215243262e-04 4.950000024522407732e-04 -1.064999777032440628e-03 -2.902000079914925871e-03 6.320000087773855772e-04 -2.860996789741146809e-03 -3.937300017431034915e-02 4.211500005512106709e-02 -2.123000467786319116e-03 -1.327000263375434147e-03 -1.029279999869558426e-01 2.863000094660816171e-03 1.680002359585816031e-04 1.945099998402884112e-02 2.113000249755326090e-03 -1.886999820823039411e-03 1.939199999022142573e-02 4.500002852157058584e-04 -2.321999946132677350e-03 1.985599999983545319e-02 -2.184999888589867888e-03 -1.500014529655031450e-05 1.997800001207586731e-02 2.011999920214438929e-03 2.535000172424295688e-03 2.027899998636189735e-02 -2.759999068952798725e-04 2.419999992863805429e-04 2.018300000128175203e-02 1.367000169326503716e-03 -8.009998769345617973e-04 1.970099999325445814e-02 5.020001361140305875e-04 -3.919999427672719904e-04 1.928799999762059042e-02 -1.366999796394197586e-03 -1.256000083731658064e-03 1.967700000880023142e-02 -4.899995376284866202e-04 -4.723000018027210568e-03 1.905300000742242428e-02 1.505100123403053068e-02 -1.569099885312657400e-02 8.571999932594024860e-03 1.922000316155974111e-03 -2.702999834420369805e-03 2.024099999209080097e-02 -1.215999902075866855e-03 1.719999281080351590e-04 2.009700000654033800e-02 -1.576599898277142309e-02 -1.283600118398305241e-02 8.413000099847620095e-03 -2.845899850735876535e-02 -2.022700215908088822e-02 -6.726999822706158406e-03 1.191900058703922530e-02 -7.421999093910169008e-03 4.657999941622503401e-03 1.300999876245085337e-03 1.710000783405133122e-04 -2.007700000735214083e-02 1.524000078166420913e-02 -1.263099887881351073e-02 -3.145400007150579019e-02 1.871000342004303834e-03 -6.046999879366304551e-03 -2.089400000428744131e-02 -1.340001032757445580e-03 1.396399990287966637e-02 4.228999993448295629e-03 -1.862999984367434518e-03 -1.715000161541954888e-03 -2.066599998800343688e-02 1.337999952622747485e-03 -8.309999187532855986e-04 -1.996900000655549984e-02 -2.330001274649946667e-04 2.609999628840677121e-04 -1.951599999897457929e-02 -1.250001493902725888e-04 5.119999705197334416e-04 -2.004899999982144229e-02 -4.699995530243520177e-05 -2.075000023864779965e-03 -2.033299999766789712e-02 3.940000666802640481e-04 -2.327999989996415442e-03 -1.981699999984944116e-02 2.107999821971557816e-03 8.530001388866773580e-04 -2.056500001248789608e-02 3.599993579526624044e-05 -6.720000180929043077e-04 -2.083899999952746815e-02 -2.114000010952622917e-03 -1.324000179984758307e-03 -2.012499998700851417e-02 -2.799683307078435090e-05 -4.166699999928671211e-02 2.834000041774742233e-03
