9.785300000000000109e-01 4.062799999999999745e-01 5.169450000000000323e+00 2.770589999999999886e+00 3.039550000000000196e+00 5.169439999999999813e+00 9.945970000000000866e+00 3.701610000000000067e+00 2.477510000000000101e+00 2.054089999999999971e+00 1.068319999999999936e+00 2.477529999999999788e+00 4.028470000000000439e+00 4.062700000000000200e-01 5.169439999999999813e+00 5.820520000000000138e+00 3.039550000000000196e+00 5.169439999999999813e+00 3.846119999999999983e+00 3.701610000000000067e+00 2.477489999999999970e+00 5.104009999999999714e+00 1.068330000000000002e+00 2.477529999999999788e+00 7.078389999999999738e+00 4.062700000000000200e-01 5.169450000000000323e+00 8.870449999999999946e+00 3.039540000000000131e+00 5.169450000000000323e+00 6.896040000000000170e+00 3.701610000000000067e+00 2.477500000000000036e+00 8.153940000000000410e+00 1.068340000000000067e+00 2.477529999999999788e+00 1.512699999999999934e+00 5.672850000000000392e+00 5.169439999999999813e+00 3.304759999999999920e+00 8.306139999999999191e+00 5.169430000000000192e+00 1.048013000000000083e+01 8.968189999999999884e+00 2.477489999999999970e+00 2.588260000000000005e+00 6.334909999999999819e+00 2.477529999999999788e+00 4.562630000000000408e+00 5.672850000000000392e+00 5.169450000000000323e+00 6.354689999999999728e+00 8.306139999999999191e+00 5.169430000000000192e+00 4.380270000000000330e+00 8.968180000000000263e+00 2.477500000000000036e+00 5.638180000000000192e+00 6.334909999999999819e+00 2.477520000000000167e+00 7.612569999999999837e+00 5.672860000000000014e+00 5.169439999999999813e+00 9.404619999999999536e+00 8.306129999999999569e+00 5.169450000000000323e+00 7.430200000000000138e+00 8.968189999999999884e+00 2.477500000000000036e+00 8.688109999999999999e+00 6.334900000000000198e+00 2.477520000000000167e+00 2.046879999999999811e+00 1.093943999999999939e+01 5.169450000000000323e+00 3.838919999999999888e+00 1.357271000000000072e+01 5.169439999999999813e+00 1.101430000000000042e+01 1.423476999999999926e+01 2.477489999999999970e+00 3.122419999999999973e+00 1.160149000000000008e+01 2.477529999999999788e+00 5.096799999999999997e+00 1.093943999999999939e+01 5.169450000000000323e+00 6.888869999999999827e+00 1.357269999999999932e+01 5.169450000000000323e+00 4.914450000000000429e+00 1.423478000000000065e+01 2.477489999999999970e+00 6.172349999999999781e+00 1.160149000000000008e+01 2.477520000000000167e+00 8.146729999999999805e+00 1.093942999999999977e+01 5.169439999999999813e+00 9.938789999999999125e+00 1.357271000000000072e+01 5.169450000000000323e+00 7.964380000000000237e+00 1.423476999999999926e+01 2.477489999999999970e+00 9.222279999999999589e+00 1.160148000000000046e+01 2.477539999999999853e+00 1.136993000000000009e+01 4.300880000000000258e+00 1.015456000000000003e+01 3.478060000000000151e+00 1.667599999999999971e+00 1.015457999999999927e+01 5.270069999999999588e+00 4.300880000000000258e+00 1.015455000000000041e+01 6.527980000000000338e+00 1.667599999999999971e+00 1.015457999999999927e+01 8.320009999999999906e+00 4.300880000000000258e+00 1.015454000000000079e+01 9.577909999999999258e+00 1.667589999999999906e+00 1.015457999999999927e+01 1.190409999999999968e+01 9.567460000000000520e+00 1.015456000000000003e+01 4.012240000000000251e+00 6.934179999999999566e+00 1.015456999999999965e+01 5.804249999999999687e+00 9.567449999999999122e+00 1.015456000000000003e+01 7.062149999999999928e+00 6.934179999999999566e+00 1.015457999999999927e+01 8.854169999999999874e+00 9.567449999999999122e+00 1.015455000000000041e+01 1.011208000000000062e+01 6.934169999999999945e+00 1.015457999999999927e+01 1.243828000000000067e+01 1.483403000000000027e+01 1.015456000000000003e+01 4.546400000000000219e+00 1.220076000000000072e+01 1.015456999999999965e+01 6.338420000000000165e+00 1.483403000000000027e+01 1.015455000000000041e+01 7.596330000000000027e+00 1.220074999999999932e+01 1.015459000000000067e+01 9.388350000000000861e+00 1.483403000000000027e+01 1.015455000000000041e+01 1.064625999999999983e+01 1.220074999999999932e+01 1.015457999999999927e+01 2.402509999999999923e+00 1.005549999999999944e+00 1.284648999999999930e+01 4.194569999999999688e+00 3.638819999999999943e+00 1.284648999999999930e+01 5.452440000000000175e+00 1.005549999999999944e+00 1.284650000000000070e+01 7.244480000000000253e+00 3.638809999999999878e+00 1.284647999999999968e+01 8.502370000000000871e+00 1.005540000000000100e+00 1.284650000000000070e+01 1.029440999999999917e+01 3.638809999999999878e+00 1.284648999999999930e+01 2.936669999999999892e+00 6.272120000000000140e+00 1.284648999999999930e+01 4.728729999999999656e+00 8.905390000000000583e+00 1.284648999999999930e+01 5.986600000000000144e+00 6.272120000000000140e+00 1.284650000000000070e+01 7.778660000000000352e+00 8.905400000000000205e+00 1.284648999999999930e+01 9.036540000000000461e+00 6.272120000000000140e+00 1.284650000000000070e+01 1.082859999999999978e+01 8.905400000000000205e+00 1.284648999999999930e+01 3.470839999999999925e+00 1.153870000000000040e+01 1.284650000000000070e+01 5.262909999999999755e+00 1.417196999999999996e+01 1.284648999999999930e+01 6.520769999999999733e+00 1.153870000000000040e+01 1.284650000000000070e+01 8.312829999999999941e+00 1.417196999999999996e+01 1.284650000000000070e+01 9.570700000000000429e+00 1.153870000000000040e+01 1.284648999999999930e+01 1.136275999999999975e+01 1.417196999999999996e+01 1.284647999999999968e+01 3.826480000000000103e+00 1.604819999999999913e+00 2.052355000000000018e+01 5.618540000000000312e+00 4.238089999999999691e+00 2.052354000000000056e+01 1.279390000000000072e+01 4.900150000000000006e+00 1.783160000000000167e+01 4.902029999999999887e+00 2.266859999999999875e+00 1.783164000000000016e+01 6.876400000000000290e+00 1.604819999999999913e+00 2.052355000000000018e+01 8.668449999999999989e+00 4.238089999999999691e+00 2.052355000000000018e+01 6.694049999999999834e+00 4.900140000000000384e+00 1.783161000000000129e+01 7.951959999999999695e+00 2.266869999999999941e+00 1.783162000000000091e+01 9.926320000000000476e+00 1.604810000000000070e+00 2.052355999999999980e+01 1.171837999999999980e+01 4.238089999999999691e+00 2.052354000000000056e+01 9.743980000000000530e+00 4.900140000000000384e+00 1.783158999999999850e+01 1.100187999999999988e+01 2.266859999999999875e+00 1.783164000000000016e+01 4.360649999999999693e+00 6.871380000000000265e+00 2.052355000000000018e+01 6.152709999999999901e+00 9.504670000000000840e+00 2.052355000000000018e+01 1.332807000000000031e+01 1.016671999999999976e+01 1.783160000000000167e+01 5.436189999999999856e+00 7.533439999999999692e+00 1.783163000000000054e+01 7.410569999999999879e+00 6.871400000000000396e+00 2.052355000000000018e+01 9.202619999999999578e+00 9.504670000000000840e+00 2.052354000000000056e+01 7.228209999999999802e+00 1.016671999999999976e+01 1.783160000000000167e+01 8.486119999999999663e+00 7.533439999999999692e+00 1.783162000000000091e+01 1.046050999999999931e+01 6.871389999999999887e+00 2.052355000000000018e+01 1.225254999999999939e+01 9.504670000000000840e+00 2.052354000000000056e+01 1.027813000000000088e+01 1.016672999999999938e+01 1.783158999999999850e+01 1.153604999999999947e+01 7.533450000000000202e+00 1.783163000000000054e+01 4.894809999999999661e+00 1.213796999999999926e+01 2.052355000000000018e+01 6.686869999999999870e+00 1.477124000000000059e+01 2.052354000000000056e+01 1.386224999999999952e+01 1.543329999999999913e+01 1.783160000000000167e+01 5.970360000000000333e+00 1.280001999999999995e+01 1.783163000000000054e+01 7.944740000000000357e+00 1.213796999999999926e+01 2.052354000000000056e+01 9.736800000000000566e+00 1.477122999999999919e+01 2.052355000000000018e+01 7.762380000000000280e+00 1.543329999999999913e+01 1.783161000000000129e+01 9.020300000000000651e+00 1.280002999999999957e+01 1.783163000000000054e+01 1.099468000000000067e+01 1.213796999999999926e+01 2.052355000000000018e+01 1.278673999999999999e+01 1.477124000000000059e+01 2.052355000000000018e+01 1.081231999999999971e+01 1.543329999999999913e+01 1.783160000000000167e+01 1.207023000000000046e+01 1.280001999999999995e+01 1.783163000000000054e+01 8.873199999999999976e-01 2.053929999999999811e+00 3.823449999999999793e+00 2.079870000000000108e+00 2.748349999999999849e+00 1.338959999999999928e+00 2.878299999999999748e-01 1.150400000000000034e-01 1.338959999999999928e+00 2.679409999999999847e+00 4.687240000000000073e+00 3.823510000000000186e+00 3.937260000000000204e+00 2.053939999999999877e+00 3.823449999999999793e+00 5.129800000000000360e+00 2.748339999999999783e+00 1.338959999999999928e+00 3.337750000000000217e+00 1.150400000000000034e-01 1.338950000000000085e+00 5.729339999999999655e+00 4.687249999999999694e+00 3.823519999999999808e+00 6.987180000000000391e+00 2.053949999999999942e+00 3.823449999999999793e+00 8.179719999999999658e+00 2.748349999999999849e+00 1.338959999999999928e+00 6.387679999999999580e+00 1.150400000000000034e-01 1.338959999999999928e+00 8.779279999999999973e+00 4.687249999999999694e+00 3.823519999999999808e+00 1.421499999999999986e+00 7.320509999999999629e+00 3.823459999999999859e+00 2.614040000000000141e+00 8.014920000000000044e+00 1.338969999999999994e+00 8.219899999999999984e-01 5.381599999999999717e+00 1.338959999999999928e+00 3.213600000000000012e+00 9.953829999999999956e+00 3.823500000000000121e+00 4.471429999999999794e+00 7.320529999999999760e+00 3.823449999999999793e+00 5.663960000000000328e+00 8.014929999999999666e+00 1.338959999999999928e+00 3.871929999999999872e+00 5.381599999999999717e+00 1.338959999999999928e+00 6.263519999999999754e+00 9.953829999999999956e+00 3.823519999999999808e+00 7.521359999999999602e+00 7.320509999999999629e+00 3.823449999999999793e+00 8.713889999999999247e+00 8.014929999999999666e+00 1.338959999999999928e+00 6.921859999999999680e+00 5.381619999999999848e+00 1.338959999999999928e+00 9.313439999999999941e+00 9.953820000000000334e+00 3.823519999999999808e+00 1.955670000000000019e+00 1.258709999999999951e+01 3.823449999999999793e+00 3.148210000000000175e+00 1.328149999999999942e+01 1.338959999999999928e+00 1.356170000000000098e+00 1.064819999999999922e+01 1.338959999999999928e+00 3.747749999999999915e+00 1.522039999999999971e+01 3.823519999999999808e+00 5.005580000000000140e+00 1.258709999999999951e+01 3.823449999999999793e+00 6.198129999999999917e+00 1.328149999999999942e+01 1.338969999999999994e+00 4.406089999999999840e+00 1.064817999999999998e+01 1.338959999999999928e+00 6.797679999999999723e+00 1.522039999999999971e+01 3.823510000000000186e+00 8.055509999999999948e+00 1.258710999999999913e+01 3.823440000000000172e+00 9.248070000000000235e+00 1.328149999999999942e+01 1.338959999999999928e+00 7.456019999999999648e+00 1.064818999999999960e+01 1.338950000000000085e+00 9.847609999999999530e+00 1.522039999999999971e+01 3.823519999999999808e+00 1.063677000000000028e+01 3.992830000000000101e+00 6.308119999999999727e+00 2.744880000000000209e+00 1.359560000000000102e+00 6.308159999999999989e+00 4.536909999999999776e+00 3.992820000000000036e+00 6.308110000000000106e+00 5.794810000000000016e+00 1.359569999999999945e+00 6.308169999999999611e+00 7.586829999999999963e+00 3.992840000000000167e+00 6.308119999999999727e+00 8.844720000000000582e+00 1.359550000000000036e+00 6.308180000000000121e+00 1.117093000000000025e+01 9.259420000000000428e+00 6.308119999999999727e+00 3.279049999999999798e+00 6.626149999999999984e+00 6.308169999999999611e+00 5.071080000000000254e+00 9.259420000000000428e+00 6.308110000000000106e+00 6.328969999999999985e+00 6.626140000000000363e+00 6.308169999999999611e+00 8.121010000000000062e+00 9.259420000000000428e+00 6.308110000000000106e+00 9.378909999999999414e+00 6.626140000000000363e+00 6.308169999999999611e+00 1.170509000000000022e+01 1.452599999999999980e+01 6.308130000000000237e+00 3.813219999999999832e+00 1.189270999999999923e+01 6.308169999999999611e+00 5.605240000000000222e+00 1.452598000000000056e+01 6.308130000000000237e+00 6.863150000000000084e+00 1.189273000000000025e+01 6.308180000000000121e+00 8.655170000000000030e+00 1.452599000000000018e+01 6.308119999999999727e+00 9.913059999999999761e+00 1.189272000000000062e+01 6.308159999999999989e+00 2.311290000000000067e+00 2.653210000000000068e+00 1.150050000000000061e+01 3.503829999999999778e+00 3.347620000000000040e+00 9.016030000000000655e+00 1.711789999999999923e+00 7.143000000000000460e-01 9.016009999999999636e+00 4.103379999999999583e+00 5.286520000000000330e+00 1.150056999999999974e+01 5.361220000000000319e+00 2.653200000000000003e+00 1.150051000000000023e+01 6.553759999999999586e+00 3.347609999999999975e+00 9.016009999999999636e+00 4.761720000000000397e+00 7.143000000000000460e-01 9.016019999999999257e+00 7.153310000000000279e+00 5.286509999999999820e+00 1.150056999999999974e+01 8.411160000000000636e+00 2.653210000000000068e+00 1.150051000000000023e+01 9.603699999999999903e+00 3.347609999999999975e+00 9.016009999999999636e+00 7.811650000000000205e+00 7.143100000000000005e-01 9.016019999999999257e+00 1.020323999999999920e+01 5.286509999999999820e+00 1.150056999999999974e+01 2.845470000000000166e+00 7.919789999999999885e+00 1.150051000000000023e+01 4.038009999999999877e+00 8.614190000000000680e+00 9.016030000000000655e+00 2.245950000000000113e+00 5.980879999999999974e+00 9.016009999999999636e+00 4.637550000000000061e+00 1.055307999999999957e+01 1.150056999999999974e+01 5.895389999999999908e+00 7.919789999999999885e+00 1.150051000000000023e+01 7.087930000000000064e+00 8.614190000000000680e+00 9.016030000000000655e+00 5.295889999999999986e+00 5.980870000000000353e+00 9.016019999999999257e+00 7.687490000000000379e+00 1.055308999999999919e+01 1.150056000000000012e+01 8.945309999999999206e+00 7.919780000000000264e+00 1.150050000000000061e+01 1.013786999999999949e+01 8.614190000000000680e+00 9.016009999999999636e+00 8.345819999999999794e+00 5.980879999999999974e+00 9.016009999999999636e+00 1.073741000000000057e+01 1.055310000000000059e+01 1.150056000000000012e+01 3.379630000000000134e+00 1.318636000000000053e+01 1.150051000000000023e+01 4.572180000000000355e+00 1.388077000000000005e+01 9.016019999999999257e+00 2.780139999999999834e+00 1.124746000000000024e+01 9.016009999999999636e+00 5.171719999999999651e+00 1.581966000000000072e+01 1.150057999999999936e+01 6.429560000000000386e+00 1.318636000000000053e+01 1.150050000000000061e+01 7.622110000000000163e+00 1.388076000000000043e+01 9.016009999999999636e+00 5.830059999999999576e+00 1.124746000000000024e+01 9.016019999999999257e+00 8.221650000000000347e+00 1.581967000000000034e+01 1.150056000000000012e+01 9.479499999999999815e+00 1.318637000000000015e+01 1.150050000000000061e+01 1.067202999999999946e+01 1.388077000000000005e+01 9.016009999999999636e+00 8.879989999999999384e+00 1.124746000000000024e+01 9.016019999999999257e+00 1.127158000000000015e+01 1.581967999999999996e+01 1.150056999999999974e+01 1.206073999999999913e+01 4.592089999999999783e+00 1.398517000000000010e+01 4.168849999999999945e+00 1.958830000000000071e+00 1.398522999999999961e+01 5.960869999999999891e+00 4.592109999999999914e+00 1.398516000000000048e+01 7.218759999999999621e+00 1.958830000000000071e+00 1.398522999999999961e+01 9.010799999999999699e+00 4.592109999999999914e+00 1.398516000000000048e+01 1.026870000000000083e+01 1.958820000000000006e+00 1.398522999999999961e+01 1.259488999999999947e+01 9.858689999999999287e+00 1.398517000000000010e+01 4.703020000000000422e+00 7.225410000000000110e+00 1.398521999999999998e+01 6.495049999999999990e+00 9.858670000000000044e+00 1.398517000000000010e+01 7.752939999999999721e+00 7.225399999999999601e+00 1.398522999999999961e+01 9.544980000000000686e+00 9.858679999999999666e+00 1.398516000000000048e+01 1.080288000000000004e+01 7.225399999999999601e+00 1.398522999999999961e+01 1.312907000000000046e+01 1.512524999999999942e+01 1.398517000000000010e+01 5.237190000000000012e+00 1.249198999999999948e+01 1.398521999999999998e+01 7.029219999999999580e+00 1.512526000000000082e+01 1.398517000000000010e+01 8.287119999999999820e+00 1.249198999999999948e+01 1.398522999999999961e+01 1.007912999999999926e+01 1.512524999999999942e+01 1.398517999999999972e+01 1.133704000000000001e+01 1.249198999999999948e+01 1.398521999999999998e+01 4.927810000000000024e+00 3.946870000000000100e+00 1.669306999999999874e+01 3.135769999999999946e+00 1.313560000000000061e+00 1.669305999999999912e+01 7.977730000000000210e+00 3.946870000000000100e+00 1.669306999999999874e+01 6.185690000000000133e+00 1.313560000000000061e+00 1.669305999999999912e+01 1.102765999999999913e+01 3.946870000000000100e+00 1.669307999999999836e+01 9.235609999999999431e+00 1.313560000000000061e+00 1.669306999999999874e+01 5.461969999999999992e+00 9.213459999999999539e+00 1.669305999999999912e+01 3.669939999999999980e+00 6.580149999999999721e+00 1.669306999999999874e+01 8.511910000000000309e+00 9.213459999999999539e+00 1.669307999999999836e+01 6.719859999999999722e+00 6.580140000000000100e+00 1.669306999999999874e+01 1.156183000000000050e+01 9.213459999999999539e+00 1.669307999999999836e+01 9.769780000000000797e+00 6.580140000000000100e+00 1.669306999999999874e+01 5.996150000000000091e+00 1.448002999999999929e+01 1.669307999999999836e+01 4.204089999999999883e+00 1.184671999999999947e+01 1.669307999999999836e+01 9.046079999999999899e+00 1.448004000000000069e+01 1.669306999999999874e+01 7.254030000000000200e+00 1.184671999999999947e+01 1.669305999999999912e+01 1.209600999999999971e+01 1.448002999999999929e+01 1.669305999999999912e+01 1.030395000000000039e+01 1.184671999999999947e+01 1.669305999999999912e+01 3.735269999999999868e+00 3.252460000000000129e+00 1.917755000000000010e+01 1.348470000000000013e+01 5.191379999999999661e+00 2.166222000000000136e+01 5.527350000000000207e+00 5.885779999999999568e+00 1.917763000000000062e+01 5.592810000000000059e+00 2.558089999999999975e+00 2.166227999999999909e+01 6.785180000000000433e+00 3.252470000000000194e+00 1.917755999999999972e+01 7.384839999999999627e+00 5.191370000000000040e+00 2.166222000000000136e+01 8.577289999999999637e+00 5.885769999999999946e+00 1.917762000000000100e+01 8.642739999999999867e+00 2.558089999999999975e+00 2.166228999999999871e+01 9.835129999999999484e+00 3.252470000000000194e+00 1.917755000000000010e+01 1.043477999999999994e+01 5.191360000000000419e+00 2.166222000000000136e+01 1.162721999999999944e+01 5.885779999999999568e+00 1.917763000000000062e+01 1.169266000000000005e+01 2.558089999999999975e+00 2.166226999999999947e+01 4.269440000000000346e+00 8.519059999999999633e+00 1.917756999999999934e+01 1.401886999999999972e+01 1.045795000000000030e+01 2.166223000000000098e+01 6.061519999999999797e+00 1.115235000000000021e+01 1.917763000000000062e+01 6.126990000000000158e+00 7.824670000000000236e+00 2.166228999999999871e+01 7.319359999999999644e+00 8.519050000000000011e+00 1.917755000000000010e+01 7.919019999999999726e+00 1.045794000000000068e+01 2.166222000000000136e+01 9.111459999999999226e+00 1.115235999999999983e+01 1.917761000000000138e+01 9.176909999999999457e+00 7.824679999999999858e+00 2.166227999999999909e+01 1.036928999999999945e+01 8.519050000000000011e+00 1.917755999999999972e+01 1.096894999999999953e+01 1.045794000000000068e+01 2.166222000000000136e+01 1.216137999999999941e+01 1.115235999999999983e+01 1.917761000000000138e+01 1.222683999999999926e+01 7.824679999999999858e+00 2.166226999999999947e+01 4.803609999999999935e+00 1.378561999999999976e+01 1.917755999999999972e+01 1.455303999999999931e+01 1.572451000000000043e+01 2.166222000000000136e+01 6.595699999999999896e+00 1.641892999999999958e+01 1.917762000000000100e+01 6.661150000000000126e+00 1.309126000000000012e+01 2.166227999999999909e+01 7.853539999999999743e+00 1.378564000000000078e+01 1.917755000000000010e+01 8.453189999999999316e+00 1.572452999999999967e+01 2.166223000000000098e+01 9.645630000000000592e+00 1.641893999999999920e+01 1.917761000000000138e+01 9.711090000000000444e+00 1.309125000000000050e+01 2.166226999999999947e+01 1.090344999999999942e+01 1.378561999999999976e+01 1.917755999999999972e+01 1.150310999999999950e+01 1.572452000000000005e+01 2.166222000000000136e+01 1.269556000000000040e+01 1.641892999999999958e+01 1.917762000000000100e+01 1.276102000000000025e+01 1.309125000000000050e+01 2.166226999999999947e+01