-2.765214916039999935e+03
-2.765179358100000172e+03
-2.765070225720000053e+03
-2.764888551250000091e+03
-2.764636198350000086e+03
-2.764315694599999915e+03
-2.763930242890000045e+03
-2.763483754660000159e+03
-2.762980638170000020e+03
-2.762425970220000181e+03
