-2.355099999999999971e-01 2.419400000000000023e-02 2.486500000000000099e-01 -2.355389999999999984e-01 2.493400000000000130e-02 2.480749999999999900e-01 2.353290000000000104e-01 -2.427899999999999850e-02 -2.478299999999999947e-01 2.358820000000000083e-01 -2.473500000000000004e-02 -2.474780000000000035e-01 -2.373119999999999952e-01 2.545400000000000093e-02 2.483080000000000009e-01 -2.353300000000000114e-01 2.551499999999999949e-02 2.483809999999999907e-01 2.354370000000000074e-01 -2.451800000000000160e-02 -2.472620000000000096e-01 2.350530000000000119e-01 -2.534499999999999947e-02 -2.471359999999999946e-01 -2.359819999999999973e-01 2.465699999999999836e-02 2.482030000000000070e-01 -2.362990000000000090e-01 2.496500000000000108e-02 2.483069999999999999e-01 2.356199999999999961e-01 -2.469800000000000120e-02 -2.472219999999999973e-01 2.360410000000000008e-01 -2.481900000000000078e-02 -2.474919999999999898e-01 -2.357080000000000009e-01 2.512800000000000103e-02 2.485380000000000089e-01 -2.358879999999999866e-01 2.453400000000000025e-02 2.482080000000000120e-01 2.346989999999999910e-01 -2.532200000000000076e-02 -2.466740000000000044e-01 2.364559999999999995e-01 -2.411299999999999902e-02 -2.475799999999999945e-01 -2.364469999999999905e-01 2.501199999999999951e-02 2.484750000000000014e-01 -2.356830000000000036e-01 2.414200000000000026e-02 2.480729999999999880e-01 2.358250000000000068e-01 -2.493300000000000030e-02 -2.468799999999999883e-01 2.355289999999999884e-01 -2.477499999999999841e-02 -2.476309999999999900e-01 -2.364690000000000125e-01 2.401599999999999915e-02 2.486269999999999869e-01 -2.366189999999999960e-01 2.542499999999999968e-02 2.473450000000000093e-01 2.357990000000000086e-01 -2.489699999999999899e-02 -2.473069999999999991e-01 2.356080000000000119e-01 -2.423399999999999860e-02 -2.477580000000000060e-01 -2.354680000000000106e-01 2.481399999999999925e-02 2.479999999999999982e-01 -2.363039999999999863e-01 2.446200000000000110e-02 2.487709999999999921e-01 2.353290000000000104e-01 -2.505900000000000141e-02 -2.470900000000000041e-01 2.359249999999999958e-01 -2.528899999999999898e-02 -2.475380000000000080e-01 -2.361399999999999888e-01 2.429399999999999962e-02 2.479200000000000015e-01 -2.361330000000000096e-01 2.537199999999999872e-02 2.487989999999999924e-01 2.351300000000000057e-01 -2.445299999999999904e-02 -2.468869999999999953e-01 2.357440000000000091e-01 -2.502899999999999917e-02 -2.477989999999999915e-01 -2.359870000000000023e-01 2.506299999999999847e-02 2.476329999999999920e-01 -2.362900000000000000e-01 2.513299999999999909e-02 2.485900000000000054e-01 2.361949999999999883e-01 -2.409800000000000136e-02 -2.470060000000000033e-01 2.358389999999999931e-01 -2.500000000000000139e-02 -2.479369999999999907e-01 2.350470000000000059e-01 -2.391100000000000170e-02 -2.472060000000000091e-01 2.359809999999999963e-01 -2.597199999999999856e-02 -2.479179999999999995e-01 2.359100000000000086e-01 -2.489500000000000046e-02 -2.475189999999999890e-01 2.351580000000000059e-01 -2.580800000000000108e-02 -2.475999999999999868e-01 2.360700000000000021e-01 -2.428299999999999903e-02 -2.478690000000000060e-01 2.354479999999999906e-01 -2.518199999999999952e-02 -2.474169999999999980e-01 2.352380000000000027e-01 -2.614599999999999910e-02 -2.472280000000000033e-01 2.357609999999999983e-01 -2.431799999999999934e-02 -2.476019999999999888e-01 2.347629999999999995e-01 -2.487599999999999881e-02 -2.469250000000000056e-01 2.357019999999999949e-01 -2.438900000000000096e-02 -2.475070000000000048e-01 2.362279999999999935e-01 -2.578700000000000089e-02 -2.476279999999999870e-01 2.362350000000000005e-01 -2.466300000000000089e-02 -2.476980000000000015e-01 2.353439999999999976e-01 -2.413799999999999973e-02 -2.475219999999999920e-01 2.365730000000000055e-01 -2.476700000000000082e-02 -2.482469999999999954e-01 2.361350000000000116e-01 -2.494599999999999942e-02 -2.474889999999999868e-01 2.350849999999999884e-01 -2.417199999999999904e-02 -2.478769999999999862e-01 2.358169999999999988e-01 -2.450199999999999947e-02 -2.477040000000000075e-01 2.360240000000000116e-01 -2.470299999999999926e-02 -2.481170000000000042e-01 -2.355690000000000006e-01 2.400300000000000003e-02 2.474510000000000043e-01 -2.369219999999999937e-01 2.513400000000000009e-02 2.483460000000000112e-01 -2.368260000000000087e-01 2.515600000000000128e-02 2.470529999999999948e-01 -2.358740000000000003e-01 2.603199999999999958e-02 2.478299999999999947e-01 -2.363419999999999965e-01 2.487500000000000128e-02 2.474220000000000030e-01 -2.360140000000000016e-01 2.538500000000000131e-02 2.473069999999999991e-01 -2.356630000000000114e-01 2.336600000000000135e-02 2.475479999999999903e-01 -2.360480000000000078e-01 2.509899999999999978e-02 2.474840000000000095e-01 -2.358570000000000111e-01 2.438799999999999996e-02 2.479879999999999862e-01 -2.355160000000000031e-01 2.428800000000000056e-02 2.477620000000000100e-01 -2.366959999999999897e-01 2.503400000000000070e-02 2.473370000000000013e-01 -2.368129999999999957e-01 2.551300000000000096e-02 2.471649999999999958e-01 -2.357970000000000066e-01 2.522500000000000089e-02 2.475670000000000093e-01 -2.364989999999999870e-01 2.459799999999999834e-02 2.475410000000000110e-01 -2.362769999999999870e-01 2.452500000000000166e-02 2.474860000000000115e-01 -2.358030000000000126e-01 2.338200000000000001e-02 2.476250000000000118e-01 -2.368969999999999965e-01 2.432300000000000087e-02 2.484250000000000069e-01 -2.361070000000000113e-01 2.413799999999999973e-02 2.482840000000000047e-01 -2.353470000000000006e-01 2.442899999999999933e-02 2.489319999999999866e-01 -2.356109999999999871e-01 2.452100000000000113e-02 2.489190000000000014e-01 2.353339999999999876e-01 -2.448499999999999982e-02 -2.466150000000000009e-01 2.359580000000000011e-01 -2.477899999999999894e-02 -2.470420000000000116e-01 -2.369680000000000120e-01 2.529800000000000104e-02 2.490660000000000096e-01 -2.357910000000000006e-01 2.491099999999999912e-02 2.485060000000000047e-01 2.352819999999999911e-01 -2.442799999999999833e-02 -2.462189999999999934e-01 2.349449999999999872e-01 -2.515399999999999928e-02 -2.461909999999999932e-01 -2.360220000000000096e-01 2.432499999999999940e-02 2.481879999999999920e-01 -2.365099999999999980e-01 2.516099999999999934e-02 2.483100000000000029e-01 2.360839999999999883e-01 -2.480399999999999966e-02 -2.457729999999999915e-01 2.363049999999999873e-01 -2.488299999999999887e-02 -2.477979999999999905e-01 -2.357420000000000071e-01 2.469999999999999973e-02 2.486309999999999909e-01 -2.360389999999999988e-01 2.415700000000000139e-02 2.480449999999999877e-01 2.349789999999999934e-01 -2.528700000000000045e-02 -2.460759999999999892e-01 2.355480000000000074e-01 -2.483399999999999844e-02 -2.470539999999999958e-01 -2.364479999999999915e-01 2.346799999999999928e-02 2.482659999999999867e-01 -2.348159999999999969e-01 2.442700000000000080e-02 2.486839999999999884e-01 2.358689999999999953e-01 -2.510700000000000084e-02 -2.470860000000000001e-01 2.353530000000000066e-01 -2.478299999999999947e-02 -2.468859999999999943e-01 -2.360720000000000041e-01 2.483099999999999891e-02 2.477949999999999875e-01 -2.368669999999999942e-01 2.570199999999999915e-02 2.486939999999999984e-01 2.357019999999999949e-01 -2.519499999999999865e-02 -2.462670000000000137e-01 2.359130000000000116e-01 -2.521299999999999930e-02 -2.468529999999999891e-01 -2.361340000000000106e-01 2.478299999999999947e-02 2.484449999999999992e-01 -2.357009999999999939e-01 2.478700000000000001e-02 2.480209999999999915e-01 2.351169999999999927e-01 -2.518400000000000152e-02 -2.464739999999999986e-01 2.362400000000000055e-01 -2.517000000000000140e-02 -2.461359999999999937e-01 -2.367599999999999982e-01 2.491799999999999918e-02 2.483420000000000072e-01 -2.356590000000000074e-01 2.488800000000000040e-02 2.486289999999999889e-01 2.358099999999999918e-01 -2.519599999999999965e-02 -2.467320000000000069e-01 2.354900000000000049e-01 -2.468300000000000008e-02 -2.465970000000000106e-01 -2.354269999999999974e-01 2.401299999999999962e-02 2.485600000000000032e-01 -2.365800000000000125e-01 2.350299999999999959e-02 2.483200000000000129e-01 2.356070000000000109e-01 -2.531399999999999970e-02 -2.466399999999999981e-01 2.355069999999999941e-01 -2.449700000000000141e-02 -2.463349999999999984e-01 1.000000000000000082e-05 -3.280000000000000038e-04 2.489999999999999809e-04 1.321601999999999943e+00 1.895120000000000138e-01 -2.567139999999999977e-01 1.321663000000000032e+00 1.896859999999999935e-01 -2.561240000000000183e-01 6.960000000000000041e-04 6.000000000000000152e-06 -5.330000000000000536e-04 -3.020000000000000223e-04 -3.170000000000000075e-04 7.749999999999999728e-04 1.322292000000000023e+00 1.895969999999999878e-01 -2.573039999999999772e-01 1.321628999999999943e+00 1.895830000000000015e-01 -2.566289999999999960e-01 4.739999999999999747e-04 -8.700000000000000051e-05 -6.729999999999999871e-04 6.250000000000000130e-04 -2.120000000000000031e-04 5.609999999999999752e-04 1.322168999999999928e+00 1.894820000000000115e-01 -2.573670000000000124e-01 1.321430000000000105e+00 1.897749999999999992e-01 -2.572920000000000207e-01 -1.399999999999999979e-05 1.299999999999999920e-05 -4.910000000000000085e-04 -7.600000000000000418e-05 -6.989999999999999686e-04 8.720000000000000537e-04 1.321690000000000031e+00 1.889109999999999956e-01 -2.578759999999999941e-01 1.321914000000000033e+00 1.893440000000000123e-01 -2.565479999999999983e-01 2.500000000000000052e-04 -8.069999999999999916e-04 1.219999999999999974e-04 -4.710000000000000102e-04 -3.989999999999999949e-04 5.609999999999999752e-04 1.321943000000000090e+00 1.888950000000000073e-01 -2.564540000000000153e-01 1.322020999999999891e+00 1.896160000000000068e-01 -2.568019999999999747e-01 1.350000000000000017e-04 -7.730000000000000326e-04 -8.980000000000000352e-04 -1.720000000000000066e-04 -1.939999999999999993e-04 -1.299999999999999886e-04 1.321685999999999916e+00 1.889480000000000048e-01 -2.569429999999999770e-01 1.321560000000000068e+00 1.895620000000000083e-01 -2.568770000000000220e-01 1.999999999999999909e-06 -6.859999999999999779e-04 -6.130000000000000466e-04 1.990000000000000124e-04 -4.470000000000000232e-04 4.490000000000000176e-04 1.321685999999999916e+00 1.891970000000000041e-01 -2.565609999999999835e-01 1.321747999999999923e+00 1.897469999999999990e-01 -2.563520000000000243e-01 4.690000000000000158e-04 -1.320000000000000101e-04 -6.070000000000000092e-04 -7.200000000000000182e-05 -4.659999999999999971e-04 8.509999999999999769e-04 1.322044999999999915e+00 1.889899999999999913e-01 -2.566490000000000160e-01 1.321847999999999912e+00 1.897210000000000008e-01 -2.566129999999999800e-01 2.979999999999999793e-04 -6.610000000000000207e-04 3.820000000000000153e-04 3.440000000000000132e-04 -1.082000000000000062e-03 9.479999999999999495e-04 1.322265999999999941e+00 1.888829999999999953e-01 -2.566829999999999945e-01 1.321534999999999904e+00 1.895310000000000050e-01 -2.558639999999999803e-01 1.599999999999999928e-05 1.200000000000000030e-04 -3.200000000000000262e-04 -1.321749999999999980e+00 -1.888229999999999908e-01 2.557929999999999926e-01 -1.321010999999999935e+00 -1.896680000000000033e-01 2.550390000000000157e-01 -1.320975999999999928e+00 -1.892939999999999900e-01 2.556869999999999976e-01 -1.321746000000000087e+00 -1.895290000000000030e-01 2.552539999999999809e-01 -1.321256999999999904e+00 -1.892699999999999938e-01 2.552940000000000209e-01 -1.320746999999999893e+00 -1.889589999999999881e-01 2.551749999999999852e-01 -1.321595999999999993e+00 -1.892340000000000133e-01 2.551619999999999999e-01 -1.321546000000000110e+00 -1.886529999999999874e-01 2.542769999999999753e-01 -1.321312999999999960e+00 -1.887379999999999891e-01 2.554810000000000136e-01 -1.321287000000000100e+00 -1.888380000000000059e-01 2.544170000000000043e-01 -1.321274000000000060e+00 -1.889180000000000026e-01 2.556200000000000139e-01 -1.321194999999999897e+00 -1.890110000000000123e-01 2.544690000000000007e-01 -1.321037999999999935e+00 -1.887040000000000106e-01 2.556019999999999959e-01 -1.321293000000000051e+00 -1.887099999999999889e-01 2.551399999999999779e-01 -1.321315999999999935e+00 -1.885360000000000091e-01 2.553690000000000127e-01 -1.321669999999999900e+00 -1.886420000000000041e-01 2.551100000000000034e-01 -1.321320999999999968e+00 -1.885860000000000036e-01 2.555450000000000221e-01 -1.320877999999999997e+00 -1.889379999999999948e-01 2.552320000000000144e-01 -6.000000000000000152e-06 2.139999999999999975e-04 4.099999999999999912e-04 1.321952000000000016e+00 1.890539999999999998e-01 -2.573389999999999844e-01 1.321792000000000078e+00 1.885479999999999934e-01 -2.569810000000000150e-01 -4.800000000000000122e-04 5.209999999999999788e-04 -4.420000000000000101e-04 6.399999999999999710e-05 6.700000000000000226e-04 -3.849999999999999798e-04 1.321684000000000081e+00 1.893340000000000023e-01 -2.576289999999999969e-01 1.321487000000000078e+00 1.891539999999999888e-01 -2.574489999999999834e-01 2.790000000000000054e-04 6.130000000000000466e-04 -4.550000000000000008e-04 -2.180000000000000134e-04 3.640000000000000115e-04 -2.460000000000000164e-04 1.321256999999999904e+00 1.893680000000000085e-01 -2.572010000000000129e-01 1.321112000000000064e+00 1.890620000000000078e-01 -2.572220000000000062e-01 1.440000000000000036e-04 3.530000000000000152e-04 -4.780000000000000178e-04 -1.949999999999999965e-04 -9.210000000000000521e-04 5.389999999999999826e-04 1.321228000000000069e+00 1.889550000000000118e-01 -2.565049999999999830e-01 1.321847999999999912e+00 1.897909999999999875e-01 -2.566140000000000088e-01 -1.259999999999999998e-04 -8.300000000000000086e-04 -5.829999999999999679e-04 -2.429999999999999977e-04 -6.960000000000000041e-04 7.029999999999999574e-04 1.322070999999999996e+00 1.881720000000000059e-01 -2.568150000000000155e-01 1.321747000000000005e+00 1.892439999999999956e-01 -2.567459999999999742e-01 -1.820000000000000057e-04 -8.390000000000000105e-04 2.239999999999999966e-04 3.119999999999999944e-04 -1.175999999999999962e-03 6.530000000000000431e-04 1.321795999999999971e+00 1.886750000000000094e-01 -2.567090000000000205e-01 1.321145000000000014e+00 1.894589999999999885e-01 -2.565399999999999903e-01 2.559999999999999884e-04 -1.152000000000000029e-03 -2.640000000000000202e-04 3.420000000000000188e-04 -6.660000000000000338e-04 -3.869999999999999742e-04 1.321498999999999979e+00 1.887629999999999864e-01 -2.580930000000000168e-01 1.321684999999999999e+00 1.895999999999999908e-01 -2.575580000000000092e-01 4.440000000000000045e-04 -2.779999999999999811e-04 -1.601999999999999908e-03 -9.000000000000000567e-05 -7.500000000000000156e-04 -5.079999999999999880e-04 1.321733999999999964e+00 1.890489999999999948e-01 -2.578179999999999916e-01 1.321083999999999925e+00 1.897729999999999972e-01 -2.569879999999999942e-01 -2.099999999999999884e-05 -3.179999999999999776e-04 -7.770000000000000214e-04 -6.819999999999999890e-04 -6.220000000000000485e-04 -3.449999999999999833e-04 1.321857000000000060e+00 1.884550000000000114e-01 -2.578659999999999841e-01 1.321577999999999919e+00 1.896970000000000045e-01 -2.571260000000000212e-01 1.399999999999999877e-04 -2.439999999999999949e-04 -1.325000000000000006e-03 -1.321237999999999913e+00 -1.880209999999999937e-01 2.558610000000000051e-01 -1.321086999999999900e+00 -1.882560000000000067e-01 2.543349999999999778e-01 -1.321358999999999950e+00 -1.885890000000000066e-01 2.561919999999999753e-01 -1.321352000000000082e+00 -1.880640000000000089e-01 2.543619999999999770e-01 -1.321573000000000109e+00 -1.884639999999999926e-01 2.558779999999999943e-01 -1.321334999999999926e+00 -1.883890000000000009e-01 2.541950000000000043e-01 -1.321206000000000103e+00 -1.896339999999999970e-01 2.554649999999999976e-01 -1.321954999999999991e+00 -1.888670000000000071e-01 2.554919999999999969e-01 -1.321450999999999931e+00 -1.898700000000000110e-01 2.552829999999999822e-01 -1.321255000000000068e+00 -1.885439999999999894e-01 2.556109999999999771e-01 -1.321045999999999943e+00 -1.896930000000000005e-01 2.552849999999999842e-01 -1.321306000000000092e+00 -1.882600000000000107e-01 2.551530000000000187e-01 -1.321078999999999892e+00 -1.884919999999999929e-01 2.553929999999999811e-01 -1.321023000000000058e+00 -1.902119999999999922e-01 2.545439999999999925e-01 -1.321053000000000033e+00 -1.883890000000000009e-01 2.550560000000000049e-01 -1.320904000000000078e+00 -1.898080000000000045e-01 2.544950000000000268e-01 -1.321663999999999950e+00 -1.888039999999999996e-01 2.550239999999999729e-01 -1.320848000000000022e+00 -1.902220000000000022e-01 2.548239999999999950e-01 1.322216000000000058e+00 1.903009999999999979e-01 -2.560890000000000111e-01 1.321565000000000101e+00 1.906710000000000071e-01 -2.558010000000000006e-01 1.321793999999999913e+00 1.902619999999999867e-01 -2.563139999999999863e-01 1.321420000000000039e+00 1.901440000000000075e-01 -2.555810000000000026e-01 1.322246999999999950e+00 1.903890000000000027e-01 -2.561640000000000028e-01 1.322265000000000024e+00 1.905959999999999877e-01 -2.559569999999999901e-01 1.322252999999999901e+00 1.881980000000000042e-01 -2.567599999999999882e-01 1.321703000000000072e+00 1.900229999999999975e-01 -2.565439999999999943e-01 1.321754000000000095e+00 1.882250000000000034e-01 -2.569600000000000217e-01 1.322092000000000045e+00 1.897490000000000010e-01 -2.563840000000000008e-01 1.321652000000000049e+00 1.878950000000000065e-01 -2.568369999999999820e-01 1.321766999999999914e+00 1.898900000000000032e-01 -2.569699999999999762e-01 1.321574000000000026e+00 1.889639999999999931e-01 -2.562940000000000218e-01 1.321663999999999950e+00 1.885979999999999879e-01 -2.559179999999999788e-01 1.321774000000000004e+00 1.892300000000000093e-01 -2.559429999999999761e-01 1.321719000000000088e+00 1.888390000000000069e-01 -2.556260000000000199e-01 1.322025999999999923e+00 1.888189999999999868e-01 -2.554370000000000251e-01 1.322108999999999979e+00 1.887399999999999911e-01 -2.560529999999999751e-01 -2.930000000000000204e-04 5.550000000000000462e-04 7.069999999999999462e-04 -1.321420000000000039e+00 -1.886770000000000114e-01 2.549960000000000004e-01 6.719999999999999628e-04 -7.600000000000000418e-05 -1.101999999999999898e-03 -1.321301999999999977e+00 -1.886790000000000134e-01 2.544170000000000043e-01 -1.879999999999999890e-04 2.390000000000000089e-04 6.589999999999999721e-04 -1.321142999999999956e+00 -1.889919999999999933e-01 2.545769999999999977e-01 -2.400000000000000061e-05 1.100000000000000039e-04 -3.409999999999999945e-04 -1.321882999999999919e+00 -1.887629999999999864e-01 2.541809999999999903e-01 -2.999999999999999737e-04 6.359999999999999551e-04 1.132999999999999893e-03 -1.321962999999999999e+00 -1.885729999999999906e-01 2.549339999999999939e-01 1.469999999999999953e-04 5.590000000000000351e-04 -8.620000000000000275e-04 -1.321466000000000030e+00 -1.889919999999999933e-01 2.539899999999999936e-01 -3.069999999999999812e-04 -6.480000000000000300e-04 1.140000000000000063e-04 -1.322206999999999910e+00 -1.894339999999999913e-01 2.551340000000000274e-01 6.899999999999999667e-05 -9.259999999999999568e-04 5.500000000000000196e-05 -1.321798000000000028e+00 -1.888110000000000066e-01 2.540240000000000276e-01 -8.100000000000000375e-05 -7.810000000000000102e-04 1.054999999999999948e-03 -1.321932000000000107e+00 -1.895779999999999965e-01 2.547760000000000025e-01 -1.160000000000000007e-04 -1.080999999999999930e-03 2.469999999999999865e-04 -1.321763999999999939e+00 -1.890680000000000138e-01 2.540609999999999813e-01 2.200000000000000078e-04 -7.730000000000000326e-04 7.489999999999999913e-04 -1.321730000000000071e+00 -1.894099999999999950e-01 2.551320000000000254e-01 -4.690000000000000158e-04 -1.088999999999999907e-03 5.980000000000000072e-04 -1.321646000000000098e+00 -1.887439999999999951e-01 2.544540000000000135e-01 -4.609999999999999840e-04 -7.619999999999999820e-04 8.419999999999999750e-04 -1.321687000000000056e+00 -1.886210000000000109e-01 2.551220000000000154e-01 1.230000000000000082e-04 3.579999999999999741e-04 8.050000000000000515e-04 -1.321430000000000105e+00 -1.891619999999999968e-01 2.542699999999999960e-01 -4.899999999999999842e-04 -4.580000000000000195e-04 1.276999999999999923e-03 -1.321793999999999913e+00 -1.883060000000000012e-01 2.551800000000000179e-01 -2.950000000000000148e-04 2.669999999999999847e-04 4.330000000000000081e-04 -1.321445999999999898e+00 -1.891319999999999946e-01 2.545310000000000072e-01 4.789999999999999879e-04 -8.300000000000000086e-04 3.669999999999999760e-04 -1.321771000000000029e+00 -1.885179999999999911e-01 2.551169999999999827e-01 2.799999999999999958e-05 6.499999999999999431e-05 7.450000000000000025e-04 -1.321290999999999993e+00 -1.896120000000000028e-01 2.541010000000000213e-01