1.570089605618681503e+02 -2.726102567950528055e+02 -4.250172482098367936e+02 -2.726102567950528055e+02 1.539258733568857451e+02 -6.947186039873295726e+01 -4.250172482098367936e+02 -6.947186039873295726e+01 -2.739398863381024896e+01
1.573463813594315468e+02 -2.728001741855148339e+02 -4.251202803164032389e+02 -2.728001741855148339e+02 1.543529433088919518e+02 -6.971431211057453936e+01 -4.251202803164032389e+02 -6.971431211057453936e+01 -2.688811719973467262e+01
1.573625905250470396e+02 -2.730547619905864849e+02 -4.252743505136770068e+02 -2.730547619905864849e+02 1.545645144821378096e+02 -6.997895791072048155e+01 -4.252743505136770068e+02 -6.997895791072048155e+01 -2.661089890574591976e+01
1.582056749468704311e+02 -2.732767652165746313e+02 -4.253688416368229355e+02 -2.732767652165746313e+02 1.555473925669043638e+02 -7.024763522128873205e+01 -4.253688416368229355e+02 -7.024763522128873205e+01 -2.557955957198521446e+01
1.590160708847024580e+02 -2.735798973945667285e+02 -4.255160956721456387e+02 -2.735798973945667285e+02 1.566260086337103701e+02 -7.052304556988190143e+01 -4.255160956721456387e+02 -7.052304556988190143e+01 -2.454583042534530080e+01
1.595831838714305775e+02 -2.739060133381622677e+02 -4.256620197246485873e+02 -2.739060133381622677e+02 1.574983111156048210e+02 -7.082104484542904288e+01 -4.256620197246485873e+02 -7.082104484542904288e+01 -2.369532719310559443e+01
1.606828926345183390e+02 -2.742617837424417644e+02 -4.258068216041473306e+02 -2.742617837424417644e+02 1.589768571725018091e+02 -7.112415624243952550e+01 -4.258068216041473306e+02 -7.112415624243952550e+01 -2.235823727767649061e+01
1.609766733708091238e+02 -2.746159955731042714e+02 -4.259246497695833114e+02 -2.746159955731042714e+02 1.596090146315076197e+02 -7.145723381485719017e+01 -4.259246497695833114e+02 -7.145723381485719017e+01 -2.174819078304876641e+01
1.629479157194736842e+02 -2.750528118054613174e+02 -4.260822527337220436e+02 -2.750528118054613174e+02 1.621404291190598030e+02 -7.177578548116555623e+01 -4.260822527337220436e+02 -7.177578548116555623e+01 -1.954654969184649360e+01
1.630555819849276133e+02 -2.754256018336370744e+02 -4.261690964556545396e+02 -2.754256018336370744e+02 1.626444926077398065e+02 -7.215067438847867720e+01 -4.261690964556545396e+02 -7.215067438847867720e+01 -1.912700245516441555e+01
