9.007317029999999392e+00 0.000000000000000000e+00 0.000000000000000000e+00 0.000000000000000000e+00 1.716124456000000009e+01 0.000000000000000000e+00 0.000000000000000000e+00 0.000000000000000000e+00 2.095328619000000003e+01
9.007317029999999392e+00 0.000000000000000000e+00 0.000000000000000000e+00 0.000000000000000000e+00 1.716124456000000009e+01 0.000000000000000000e+00 0.000000000000000000e+00 0.000000000000000000e+00 2.095328619000000003e+01
9.007317029999999392e+00 0.000000000000000000e+00 0.000000000000000000e+00 0.000000000000000000e+00 1.716124456000000009e+01 0.000000000000000000e+00 0.000000000000000000e+00 0.000000000000000000e+00 2.095328619000000003e+01
9.007317029999999392e+00 0.000000000000000000e+00 0.000000000000000000e+00 0.000000000000000000e+00 1.716124456000000009e+01 0.000000000000000000e+00 0.000000000000000000e+00 0.000000000000000000e+00 2.095328619000000003e+01
9.007317029999999392e+00 0.000000000000000000e+00 0.000000000000000000e+00 0.000000000000000000e+00 1.716124456000000009e+01 0.000000000000000000e+00 0.000000000000000000e+00 0.000000000000000000e+00 2.095328619000000003e+01
