1.200000000000000030e-04 1.539999999999999919e-03 4.742689999999999628e+00 1.501339999999999897e+00 2.861749999999999794e+00 4.742680000000000007e+00 1.100000000000000039e-04 3.811960000000000015e+00 2.214399999999999924e+00 1.501330000000000053e+00 9.517600000000000504e-01 2.214399999999999924e+00 3.002559999999999896e+00 1.539999999999999919e-03 4.742689999999999628e+00 4.503779999999999895e+00 2.861749999999999794e+00 4.742680000000000007e+00 3.002549999999999830e+00 3.811960000000000015e+00 2.214399999999999924e+00 4.503770000000000273e+00 9.517600000000000504e-01 2.214399999999999924e+00 6.004999999999999893e+00 1.539999999999999919e-03 4.742689999999999628e+00 7.506219999999999892e+00 2.861749999999999794e+00 4.742680000000000007e+00 6.004990000000000272e+00 3.811960000000000015e+00 2.214399999999999924e+00 7.506210000000000271e+00 9.517600000000000504e-01 2.214399999999999924e+00 1.200000000000000030e-04 5.721949999999999648e+00 4.742689999999999628e+00 1.501339999999999897e+00 8.582169999999999632e+00 4.742680000000000007e+00 1.100000000000000039e-04 9.532370000000000232e+00 2.214399999999999924e+00 1.501330000000000053e+00 6.672170000000000378e+00 2.214399999999999924e+00 3.002559999999999896e+00 5.721949999999999648e+00 4.742689999999999628e+00 4.503779999999999895e+00 8.582169999999999632e+00 4.742680000000000007e+00 3.002549999999999830e+00 9.532370000000000232e+00 2.214399999999999924e+00 4.503770000000000273e+00 6.672170000000000378e+00 2.214399999999999924e+00 6.004999999999999893e+00 5.721949999999999648e+00 4.742689999999999628e+00 7.506219999999999892e+00 8.582169999999999632e+00 4.742680000000000007e+00 6.004990000000000272e+00 9.532370000000000232e+00 2.214399999999999924e+00 7.506210000000000271e+00 6.672170000000000378e+00 2.214399999999999924e+00 1.200000000000000030e-04 1.144237000000000037e+01 4.742689999999999628e+00 1.501339999999999897e+00 1.430258000000000074e+01 4.742680000000000007e+00 1.100000000000000039e-04 1.525278999999999918e+01 2.214399999999999924e+00 1.501330000000000053e+00 1.239259000000000022e+01 2.214399999999999924e+00 3.002559999999999896e+00 1.144237000000000037e+01 4.742689999999999628e+00 4.503779999999999895e+00 1.430258000000000074e+01 4.742680000000000007e+00 3.002549999999999830e+00 1.525278999999999918e+01 2.214399999999999924e+00 4.503770000000000273e+00 1.239259000000000022e+01 2.214399999999999924e+00 6.004999999999999893e+00 1.144237000000000037e+01 4.742689999999999628e+00 7.506219999999999892e+00 1.430258000000000074e+01 4.742680000000000007e+00 6.004990000000000272e+00 1.525278999999999918e+01 2.214399999999999924e+00 7.506210000000000271e+00 1.239259000000000022e+01 2.214399999999999924e+00 1.200000000000000030e-04 1.539999999999999919e-03 1.172711999999999932e+01 1.501339999999999897e+00 2.861749999999999794e+00 1.172710999999999970e+01 1.100000000000000039e-04 3.811960000000000015e+00 9.198829999999999174e+00 1.501330000000000053e+00 9.517600000000000504e-01 9.198829999999999174e+00 3.002559999999999896e+00 1.539999999999999919e-03 1.172711999999999932e+01 4.503779999999999895e+00 2.861749999999999794e+00 1.172710999999999970e+01 3.002549999999999830e+00 3.811960000000000015e+00 9.198829999999999174e+00 4.503770000000000273e+00 9.517600000000000504e-01 9.198829999999999174e+00 6.004999999999999893e+00 1.539999999999999919e-03 1.172711999999999932e+01 7.506219999999999892e+00 2.861749999999999794e+00 1.172710999999999970e+01 6.004990000000000272e+00 3.811960000000000015e+00 9.198829999999999174e+00 7.506210000000000271e+00 9.517600000000000504e-01 9.198829999999999174e+00 1.200000000000000030e-04 5.721949999999999648e+00 1.172711999999999932e+01 1.501339999999999897e+00 8.582169999999999632e+00 1.172710999999999970e+01 1.100000000000000039e-04 9.532370000000000232e+00 9.198829999999999174e+00 1.501330000000000053e+00 6.672170000000000378e+00 9.198829999999999174e+00 3.002559999999999896e+00 5.721949999999999648e+00 1.172711999999999932e+01 4.503779999999999895e+00 8.582169999999999632e+00 1.172710999999999970e+01 3.002549999999999830e+00 9.532370000000000232e+00 9.198829999999999174e+00 4.503770000000000273e+00 6.672170000000000378e+00 9.198829999999999174e+00 6.004999999999999893e+00 5.721949999999999648e+00 1.172711999999999932e+01 7.506219999999999892e+00 8.582169999999999632e+00 1.172710999999999970e+01 6.004990000000000272e+00 9.532370000000000232e+00 9.198829999999999174e+00 7.506210000000000271e+00 6.672170000000000378e+00 9.198829999999999174e+00 1.200000000000000030e-04 1.144237000000000037e+01 1.172711999999999932e+01 1.501339999999999897e+00 1.430258000000000074e+01 1.172710999999999970e+01 1.100000000000000039e-04 1.525278999999999918e+01 9.198829999999999174e+00 1.501330000000000053e+00 1.239259000000000022e+01 9.198829999999999174e+00 3.002559999999999896e+00 1.144237000000000037e+01 1.172711999999999932e+01 4.503779999999999895e+00 1.430258000000000074e+01 1.172710999999999970e+01 3.002549999999999830e+00 1.525278999999999918e+01 9.198829999999999174e+00 4.503770000000000273e+00 1.239259000000000022e+01 9.198829999999999174e+00 6.004999999999999893e+00 1.144237000000000037e+01 1.172711999999999932e+01 7.506219999999999892e+00 1.430258000000000074e+01 1.172710999999999970e+01 6.004990000000000272e+00 1.525278999999999918e+01 9.198829999999999174e+00 7.506210000000000271e+00 1.239259000000000022e+01 9.198829999999999174e+00 1.200000000000000030e-04 1.539999999999999919e-03 1.871154999999999902e+01 1.501339999999999897e+00 2.861749999999999794e+00 1.871153999999999940e+01 1.100000000000000039e-04 3.811960000000000015e+00 1.618326000000000064e+01 1.501330000000000053e+00 9.517600000000000504e-01 1.618326000000000064e+01 3.002559999999999896e+00 1.539999999999999919e-03 1.871154999999999902e+01 4.503779999999999895e+00 2.861749999999999794e+00 1.871153999999999940e+01 3.002549999999999830e+00 3.811960000000000015e+00 1.618326000000000064e+01 4.503770000000000273e+00 9.517600000000000504e-01 1.618326000000000064e+01 6.004999999999999893e+00 1.539999999999999919e-03 1.871154999999999902e+01 7.506219999999999892e+00 2.861749999999999794e+00 1.871153999999999940e+01 6.004990000000000272e+00 3.811960000000000015e+00 1.618326000000000064e+01 7.506210000000000271e+00 9.517600000000000504e-01 1.618326000000000064e+01 1.200000000000000030e-04 5.721949999999999648e+00 1.871154999999999902e+01 1.501339999999999897e+00 8.582169999999999632e+00 1.871153999999999940e+01 1.100000000000000039e-04 9.532370000000000232e+00 1.618326000000000064e+01 1.501330000000000053e+00 6.672170000000000378e+00 1.618326000000000064e+01 3.002559999999999896e+00 5.721949999999999648e+00 1.871154999999999902e+01 4.503779999999999895e+00 8.582169999999999632e+00 1.871153999999999940e+01 3.002549999999999830e+00 9.532370000000000232e+00 1.618326000000000064e+01 4.503770000000000273e+00 6.672170000000000378e+00 1.618326000000000064e+01 6.004999999999999893e+00 5.721949999999999648e+00 1.871154999999999902e+01 7.506219999999999892e+00 8.582169999999999632e+00 1.871153999999999940e+01 6.004990000000000272e+00 9.532370000000000232e+00 1.618326000000000064e+01 7.506210000000000271e+00 6.672170000000000378e+00 1.618326000000000064e+01 1.200000000000000030e-04 1.144237000000000037e+01 1.871154999999999902e+01 1.501339999999999897e+00 1.430258000000000074e+01 1.871153999999999940e+01 1.100000000000000039e-04 1.525278999999999918e+01 1.618326000000000064e+01 1.501330000000000053e+00 1.239259000000000022e+01 1.618326000000000064e+01 3.002559999999999896e+00 1.144237000000000037e+01 1.871154999999999902e+01 4.503779999999999895e+00 1.430258000000000074e+01 1.871153999999999940e+01 3.002549999999999830e+00 1.525278999999999918e+01 1.618326000000000064e+01 4.503770000000000273e+00 1.239259000000000022e+01 1.618326000000000064e+01 6.004999999999999893e+00 1.144237000000000037e+01 1.871154999999999902e+01 7.506219999999999892e+00 1.430258000000000074e+01 1.871153999999999940e+01 6.004990000000000272e+00 1.525278999999999918e+01 1.618326000000000064e+01 7.506210000000000271e+00 1.239259000000000022e+01 1.618326000000000064e+01 1.299999999999999886e-04 1.906779999999999919e+00 3.478600000000000136e+00 1.399999999999999877e-04 3.842299999999999827e+00 5.757209999999999717e+00 1.501339999999999897e+00 2.831409999999999982e+00 1.199869999999999992e+00 1.200000000000000030e-04 5.691609999999999836e+00 1.199869999999999992e+00 1.501349999999999962e+00 4.766989999999999839e+00 3.478590000000000071e+00 1.501349999999999962e+00 9.820999999999999730e-01 5.757200000000000095e+00 3.002569999999999961e+00 1.906779999999999919e+00 3.478600000000000136e+00 3.002569999999999961e+00 3.842299999999999827e+00 5.757209999999999717e+00 4.503770000000000273e+00 2.831409999999999982e+00 1.199869999999999992e+00 3.002559999999999896e+00 5.691609999999999836e+00 1.199869999999999992e+00 4.503790000000000404e+00 4.766989999999999839e+00 3.478590000000000071e+00 4.503790000000000404e+00 9.820999999999999730e-01 5.757200000000000095e+00 6.005010000000000403e+00 1.906779999999999919e+00 3.478600000000000136e+00 6.005010000000000403e+00 3.842299999999999827e+00 5.757209999999999717e+00 7.506210000000000271e+00 2.831409999999999982e+00 1.199869999999999992e+00 6.004990000000000272e+00 5.691609999999999836e+00 1.199869999999999992e+00 7.506230000000000402e+00 4.766989999999999839e+00 3.478590000000000071e+00 7.506230000000000402e+00 9.820999999999999730e-01 5.757200000000000095e+00 1.299999999999999886e-04 7.627189999999999692e+00 3.478600000000000136e+00 1.399999999999999877e-04 9.562709999999999155e+00 5.757209999999999717e+00 1.501339999999999897e+00 8.551830000000000709e+00 1.199869999999999992e+00 1.200000000000000030e-04 1.141202999999999967e+01 1.199869999999999992e+00 1.501349999999999962e+00 1.048739999999999917e+01 3.478590000000000071e+00 1.501349999999999962e+00 6.702519999999999811e+00 5.757200000000000095e+00 3.002569999999999961e+00 7.627189999999999692e+00 3.478600000000000136e+00 3.002569999999999961e+00 9.562709999999999155e+00 5.757209999999999717e+00 4.503770000000000273e+00 8.551830000000000709e+00 1.199869999999999992e+00 3.002559999999999896e+00 1.141202999999999967e+01 1.199869999999999992e+00 4.503790000000000404e+00 1.048739999999999917e+01 3.478590000000000071e+00 4.503790000000000404e+00 6.702519999999999811e+00 5.757200000000000095e+00 6.005010000000000403e+00 7.627189999999999692e+00 3.478600000000000136e+00 6.005010000000000403e+00 9.562709999999999155e+00 5.757209999999999717e+00 7.506210000000000271e+00 8.551830000000000709e+00 1.199869999999999992e+00 6.004990000000000272e+00 1.141202999999999967e+01 1.199869999999999992e+00 7.506230000000000402e+00 1.048739999999999917e+01 3.478590000000000071e+00 7.506230000000000402e+00 6.702519999999999811e+00 5.757200000000000095e+00 1.299999999999999886e-04 1.334760999999999953e+01 3.478600000000000136e+00 1.399999999999999877e-04 1.528312999999999988e+01 5.757209999999999717e+00 1.501339999999999897e+00 1.427224000000000004e+01 1.199869999999999992e+00 1.200000000000000030e-04 1.713243999999999900e+01 1.199869999999999992e+00 1.501349999999999962e+00 1.620782000000000167e+01 3.478590000000000071e+00 1.501349999999999962e+00 1.242292999999999914e+01 5.757200000000000095e+00 3.002569999999999961e+00 1.334760999999999953e+01 3.478600000000000136e+00 3.002569999999999961e+00 1.528312999999999988e+01 5.757209999999999717e+00 4.503770000000000273e+00 1.427224000000000004e+01 1.199869999999999992e+00 3.002559999999999896e+00 1.713243999999999900e+01 1.199869999999999992e+00 4.503790000000000404e+00 1.620782000000000167e+01 3.478590000000000071e+00 4.503790000000000404e+00 1.242292999999999914e+01 5.757200000000000095e+00 6.005010000000000403e+00 1.334760999999999953e+01 3.478600000000000136e+00 6.005010000000000403e+00 1.528312999999999988e+01 5.757209999999999717e+00 7.506210000000000271e+00 1.427224000000000004e+01 1.199869999999999992e+00 6.004990000000000272e+00 1.713243999999999900e+01 1.199869999999999992e+00 7.506230000000000402e+00 1.620782000000000167e+01 3.478590000000000071e+00 7.506230000000000402e+00 1.242292999999999914e+01 5.757200000000000095e+00 1.299999999999999886e-04 1.906779999999999919e+00 1.046302999999999983e+01 1.399999999999999877e-04 3.842299999999999827e+00 1.274164000000000030e+01 1.501339999999999897e+00 2.831409999999999982e+00 8.184300000000000352e+00 1.200000000000000030e-04 5.691609999999999836e+00 8.184300000000000352e+00 1.501349999999999962e+00 4.766989999999999839e+00 1.046302000000000021e+01 1.501349999999999962e+00 9.820999999999999730e-01 1.274161999999999928e+01 3.002569999999999961e+00 1.906779999999999919e+00 1.046302999999999983e+01 3.002569999999999961e+00 3.842299999999999827e+00 1.274164000000000030e+01 4.503770000000000273e+00 2.831409999999999982e+00 8.184300000000000352e+00 3.002559999999999896e+00 5.691609999999999836e+00 8.184300000000000352e+00 4.503790000000000404e+00 4.766989999999999839e+00 1.046302000000000021e+01 4.503790000000000404e+00 9.820999999999999730e-01 1.274161999999999928e+01 6.005010000000000403e+00 1.906779999999999919e+00 1.046302999999999983e+01 6.005010000000000403e+00 3.842299999999999827e+00 1.274164000000000030e+01 7.506210000000000271e+00 2.831409999999999982e+00 8.184300000000000352e+00 6.004990000000000272e+00 5.691609999999999836e+00 8.184300000000000352e+00 7.506230000000000402e+00 4.766989999999999839e+00 1.046302000000000021e+01 7.506230000000000402e+00 9.820999999999999730e-01 1.274161999999999928e+01 1.299999999999999886e-04 7.627189999999999692e+00 1.046302999999999983e+01 1.399999999999999877e-04 9.562709999999999155e+00 1.274164000000000030e+01 1.501339999999999897e+00 8.551830000000000709e+00 8.184300000000000352e+00 1.200000000000000030e-04 1.141202999999999967e+01 8.184300000000000352e+00 1.501349999999999962e+00 1.048739999999999917e+01 1.046302000000000021e+01 1.501349999999999962e+00 6.702519999999999811e+00 1.274161999999999928e+01 3.002569999999999961e+00 7.627189999999999692e+00 1.046302999999999983e+01 3.002569999999999961e+00 9.562709999999999155e+00 1.274164000000000030e+01 4.503770000000000273e+00 8.551830000000000709e+00 8.184300000000000352e+00 3.002559999999999896e+00 1.141202999999999967e+01 8.184300000000000352e+00 4.503790000000000404e+00 1.048739999999999917e+01 1.046302000000000021e+01 4.503790000000000404e+00 6.702519999999999811e+00 1.274161999999999928e+01 6.005010000000000403e+00 7.627189999999999692e+00 1.046302999999999983e+01 6.005010000000000403e+00 9.562709999999999155e+00 1.274164000000000030e+01 7.506210000000000271e+00 8.551830000000000709e+00 8.184300000000000352e+00 6.004990000000000272e+00 1.141202999999999967e+01 8.184300000000000352e+00 7.506230000000000402e+00 1.048739999999999917e+01 1.046302000000000021e+01 7.506230000000000402e+00 6.702519999999999811e+00 1.274161999999999928e+01 1.299999999999999886e-04 1.334760999999999953e+01 1.046302999999999983e+01 1.399999999999999877e-04 1.528312999999999988e+01 1.274164000000000030e+01 1.501339999999999897e+00 1.427224000000000004e+01 8.184300000000000352e+00 1.200000000000000030e-04 1.713243999999999900e+01 8.184300000000000352e+00 1.501349999999999962e+00 1.620782000000000167e+01 1.046302000000000021e+01 1.501349999999999962e+00 1.242292999999999914e+01 1.274161999999999928e+01 3.002569999999999961e+00 1.334760999999999953e+01 1.046302999999999983e+01 3.002569999999999961e+00 1.528312999999999988e+01 1.274164000000000030e+01 4.503770000000000273e+00 1.427224000000000004e+01 8.184300000000000352e+00 3.002559999999999896e+00 1.713243999999999900e+01 8.184300000000000352e+00 4.503790000000000404e+00 1.620782000000000167e+01 1.046302000000000021e+01 4.503790000000000404e+00 1.242292999999999914e+01 1.274161999999999928e+01 6.005010000000000403e+00 1.334760999999999953e+01 1.046302999999999983e+01 6.005010000000000403e+00 1.528312999999999988e+01 1.274164000000000030e+01 7.506210000000000271e+00 1.427224000000000004e+01 8.184300000000000352e+00 6.004990000000000272e+00 1.713243999999999900e+01 8.184300000000000352e+00 7.506230000000000402e+00 1.620782000000000167e+01 1.046302000000000021e+01 7.506230000000000402e+00 1.242292999999999914e+01 1.274161999999999928e+01 1.299999999999999886e-04 1.906779999999999919e+00 1.744745999999999952e+01 1.399999999999999877e-04 3.842299999999999827e+00 1.972606999999999999e+01 1.501339999999999897e+00 2.831409999999999982e+00 1.516873000000000005e+01 1.200000000000000030e-04 5.691609999999999836e+00 1.516873000000000005e+01 1.501349999999999962e+00 4.766989999999999839e+00 1.744744999999999990e+01 1.501349999999999962e+00 9.820999999999999730e-01 1.972605000000000075e+01 3.002569999999999961e+00 1.906779999999999919e+00 1.744745999999999952e+01 3.002569999999999961e+00 3.842299999999999827e+00 1.972606999999999999e+01 4.503770000000000273e+00 2.831409999999999982e+00 1.516873000000000005e+01 3.002559999999999896e+00 5.691609999999999836e+00 1.516873000000000005e+01 4.503790000000000404e+00 4.766989999999999839e+00 1.744744999999999990e+01 4.503790000000000404e+00 9.820999999999999730e-01 1.972605000000000075e+01 6.005010000000000403e+00 1.906779999999999919e+00 1.744745999999999952e+01 6.005010000000000403e+00 3.842299999999999827e+00 1.972606999999999999e+01 7.506210000000000271e+00 2.831409999999999982e+00 1.516873000000000005e+01 6.004990000000000272e+00 5.691609999999999836e+00 1.516873000000000005e+01 7.506230000000000402e+00 4.766989999999999839e+00 1.744744999999999990e+01 7.506230000000000402e+00 9.820999999999999730e-01 1.972605000000000075e+01 1.299999999999999886e-04 7.627189999999999692e+00 1.744745999999999952e+01 1.399999999999999877e-04 9.562709999999999155e+00 1.972606999999999999e+01 1.501339999999999897e+00 8.551830000000000709e+00 1.516873000000000005e+01 1.200000000000000030e-04 1.141202999999999967e+01 1.516873000000000005e+01 1.501349999999999962e+00 1.048739999999999917e+01 1.744744999999999990e+01 1.501349999999999962e+00 6.702519999999999811e+00 1.972605000000000075e+01 3.002569999999999961e+00 7.627189999999999692e+00 1.744745999999999952e+01 3.002569999999999961e+00 9.562709999999999155e+00 1.972606999999999999e+01 4.503770000000000273e+00 8.551830000000000709e+00 1.516873000000000005e+01 3.002559999999999896e+00 1.141202999999999967e+01 1.516873000000000005e+01 4.503790000000000404e+00 1.048739999999999917e+01 1.744744999999999990e+01 4.503790000000000404e+00 6.702519999999999811e+00 1.972605000000000075e+01 6.005010000000000403e+00 7.627189999999999692e+00 1.744745999999999952e+01 6.005010000000000403e+00 9.562709999999999155e+00 1.972606999999999999e+01 7.506210000000000271e+00 8.551830000000000709e+00 1.516873000000000005e+01 6.004990000000000272e+00 1.141202999999999967e+01 1.516873000000000005e+01 7.506230000000000402e+00 1.048739999999999917e+01 1.744744999999999990e+01 7.506230000000000402e+00 6.702519999999999811e+00 1.972605000000000075e+01 1.299999999999999886e-04 1.334760999999999953e+01 1.744745999999999952e+01 1.399999999999999877e-04 1.528312999999999988e+01 1.972606999999999999e+01 1.501339999999999897e+00 1.427224000000000004e+01 1.516873000000000005e+01 1.200000000000000030e-04 1.713243999999999900e+01 1.516873000000000005e+01 1.501349999999999962e+00 1.620782000000000167e+01 1.744744999999999990e+01 1.501349999999999962e+00 1.242292999999999914e+01 1.972605000000000075e+01 3.002569999999999961e+00 1.334760999999999953e+01 1.744745999999999952e+01 3.002569999999999961e+00 1.528312999999999988e+01 1.972606999999999999e+01 4.503770000000000273e+00 1.427224000000000004e+01 1.516873000000000005e+01 3.002559999999999896e+00 1.713243999999999900e+01 1.516873000000000005e+01 4.503790000000000404e+00 1.620782000000000167e+01 1.744744999999999990e+01 4.503790000000000404e+00 1.242292999999999914e+01 1.972605000000000075e+01 6.005010000000000403e+00 1.334760999999999953e+01 1.744745999999999952e+01 6.005010000000000403e+00 1.528312999999999988e+01 1.972606999999999999e+01 7.506210000000000271e+00 1.427224000000000004e+01 1.516873000000000005e+01 6.004990000000000272e+00 1.713243999999999900e+01 1.516873000000000005e+01 7.506230000000000402e+00 1.620782000000000167e+01 1.744744999999999990e+01 7.506230000000000402e+00 1.242292999999999914e+01 1.972605000000000075e+01