-2.809659935180000048e+03
-2.809624306090000118e+03
-2.809518831779999800e+03
-2.809344108639999831e+03
-2.809101186479999797e+03
