2.919999999999999961e-04 3.629999999999999980e-03 -6.677999999999999908e-03 5.760000000000000146e-04 3.706999999999999792e-03 -4.957999999999999734e-03 2.889999999999999774e-04 -3.567999999999999991e-03 5.649999999999999641e-03 7.889999999999999878e-04 -3.191999999999999959e-03 5.002000000000000370e-03 -2.869999999999999830e-04 3.811999999999999850e-03 -5.253999999999999990e-03 1.410000000000000120e-04 3.405000000000000041e-03 -6.418000000000000094e-03 -5.339999999999999695e-04 -3.237999999999999993e-03 4.885999999999999718e-03 2.280000000000000126e-04 -3.500000000000000073e-03 5.668000000000000295e-03 4.920000000000000328e-04 3.736999999999999870e-03 -5.265999999999999848e-03 -2.079999999999999872e-04 3.707999999999999925e-03 -5.092000000000000172e-03 7.010000000000000172e-04 -3.458999999999999835e-03 4.964999999999999795e-03 -5.259999999999999919e-04 -3.282000000000000195e-03 4.950000000000000407e-03 1.949999999999999965e-04 3.523999999999999789e-03 -6.337999999999999884e-03 5.680000000000000370e-04 3.752000000000000127e-03 -4.666000000000000009e-03 2.410000000000000033e-04 -3.340000000000000087e-03 5.904999999999999659e-03 9.079999999999999530e-04 -3.518999999999999993e-03 4.956000000000000336e-03 -1.150000000000000035e-04 3.876000000000000105e-03 -4.922000000000000160e-03 1.910000000000000077e-04 3.236999999999999860e-03 -6.019000000000000045e-03 -5.249999999999999676e-04 -3.073000000000000211e-03 5.157000000000000126e-03 -7.700000000000000139e-05 -3.745000000000000065e-03 5.749999999999999903e-03 4.360000000000000269e-04 4.009999999999999676e-03 -4.793999999999999651e-03 -2.500000000000000052e-04 3.687999999999999872e-03 -4.642000000000000293e-03 7.500000000000000156e-04 -2.907999999999999995e-03 5.197000000000000230e-03 -3.490000000000000263e-04 -3.435000000000000119e-03 5.042999999999999740e-03 1.379999999999999933e-04 3.216999999999999808e-03 -6.434999999999999748e-03 6.400000000000000524e-04 3.712000000000000022e-03 -5.178999999999999576e-03 1.840000000000000001e-04 -3.514000000000000196e-03 5.679000000000000020e-03 7.810000000000000102e-04 -3.053999999999999857e-03 4.988000000000000246e-03 -2.110000000000000059e-04 3.543000000000000142e-03 -5.057999999999999996e-03 2.739999999999999923e-04 3.461999999999999800e-03 -6.492999999999999640e-03 -4.310000000000000137e-04 -3.250999999999999984e-03 4.980000000000000052e-03 2.509999999999999753e-04 -3.351999999999999945e-03 5.644999999999999844e-03 5.900000000000000296e-04 3.615000000000000158e-03 -5.053000000000000200e-03 -3.930000000000000117e-04 3.632999999999999945e-03 -5.145000000000000268e-03 7.060000000000000303e-04 -3.222000000000000038e-03 4.989000000000000379e-03 -5.500000000000000331e-04 -3.109999999999999917e-03 5.003999999999999768e-03 3.530000000000000152e-04 3.386000000000000121e-03 -6.583000000000000310e-03 6.980000000000000527e-04 3.591000000000000008e-03 -5.233999999999999937e-03 3.269999999999999795e-04 -3.137000000000000031e-03 5.882000000000000076e-03 6.880000000000000265e-04 -2.974000000000000081e-03 5.396999999999999888e-03 -3.840000000000000097e-04 3.553999999999999868e-03 -5.109999999999999959e-03 5.399999999999999798e-05 3.439999999999999915e-03 -6.715999999999999748e-03 -5.069999999999999637e-04 -2.991999999999999868e-03 5.224000000000000345e-03 1.869999999999999917e-04 -3.249999999999999851e-03 6.139000000000000359e-03 5.320000000000000293e-04 3.455999999999999871e-03 -5.176000000000000045e-03 -2.410000000000000033e-04 3.622999999999999918e-03 -5.303999999999999687e-03 6.639999999999999852e-04 -2.759999999999999867e-03 5.237999999999999601e-03 -3.950000000000000061e-04 -3.196000000000000056e-03 5.415999999999999807e-03 1.689999999999999879e-04 3.517999999999999860e-03 -6.845000000000000390e-03 6.710000000000000469e-04 3.769999999999999914e-03 -5.101999999999999764e-03 2.629999999999999959e-04 -3.648999999999999900e-03 5.977999999999999807e-03 7.519999999999999558e-04 -3.418000000000000031e-03 5.138000000000000206e-03 -2.680000000000000090e-04 3.609999999999999928e-03 -5.442999999999999922e-03 8.700000000000000051e-05 3.503000000000000037e-03 -6.520999999999999887e-03 -4.510000000000000120e-04 -3.259999999999999877e-03 5.308000000000000218e-03 2.669999999999999847e-04 -3.704999999999999960e-03 5.760999999999999628e-03 5.900000000000000296e-04 3.794000000000000063e-03 -5.449999999999999983e-03 -2.410000000000000033e-04 3.555000000000000000e-03 -5.096999999999999968e-03 6.509999999999999945e-04 -3.363000000000000104e-03 5.282000000000000237e-03 -5.410000000000000312e-04 -3.501000000000000206e-03 5.048000000000000403e-03 3.240000000000000150e-04 3.363999999999999803e-03 -6.524000000000000285e-03 7.600000000000000418e-04 3.861999999999999982e-03 -4.904999999999999638e-03 1.530000000000000056e-04 -3.288999999999999823e-03 6.119999999999999572e-03 9.909999999999999105e-04 -3.318000000000000203e-03 5.368000000000000375e-03 -2.010000000000000068e-04 3.641999999999999838e-03 -5.125000000000000215e-03 1.410000000000000120e-04 3.547999999999999939e-03 -6.257000000000000409e-03 -2.939999999999999905e-04 -3.380999999999999891e-03 5.429999999999999931e-03 4.600000000000000004e-05 -3.403999999999999908e-03 5.956999999999999622e-03 3.780000000000000265e-04 3.748000000000000029e-03 -5.106000000000000295e-03 -3.869999999999999742e-04 3.906999999999999883e-03 -4.869000000000000064e-03 5.990000000000000316e-04 -3.286999999999999991e-03 5.348000000000000323e-03 -5.519999999999999733e-04 -3.237999999999999993e-03 5.270000000000000379e-03 2.610000000000000015e-04 3.242999999999999789e-03 -6.472000000000000322e-03 8.329999999999999731e-04 3.641000000000000139e-03 -4.899999999999999842e-03 2.889999999999999774e-04 -3.347999999999999848e-03 5.758000000000000097e-03 7.870000000000000476e-04 -3.275000000000000133e-03 5.080000000000000314e-03 -2.559999999999999884e-04 3.693000000000000102e-03 -4.989999999999999644e-03 -1.200000000000000030e-05 3.305000000000000212e-03 -6.291999999999999850e-03 -6.059999999999999849e-04 -3.164999999999999845e-03 5.120999999999999684e-03 1.259999999999999998e-04 -3.596999999999999937e-03 5.878000000000000412e-03 4.979999999999999618e-04 3.730999999999999941e-03 -5.030999999999999882e-03 -2.950000000000000148e-04 3.482999999999999985e-03 -5.082999999999999845e-03 7.820000000000000345e-04 -3.148000000000000190e-03 5.189000000000000036e-03 -4.429999999999999802e-04 -3.330000000000000061e-03 5.122999999999999950e-03 2.120000000000000031e-04 3.454000000000000039e-03 -6.714999999999999615e-03 6.459999999999999814e-04 3.880999999999999901e-03 -5.067999999999999589e-03 2.400000000000000061e-05 -3.310000000000000008e-03 5.562000000000000104e-03 7.330000000000000361e-04 -3.405000000000000041e-03 4.904999999999999638e-03 -2.410000000000000033e-04 3.495999999999999976e-03 -5.209000000000000088e-03 2.489999999999999809e-04 3.566000000000000159e-03 -6.530000000000000214e-03 -3.919999999999999873e-04 -3.151999999999999854e-03 4.890000000000000249e-03 2.000000000000000096e-04 -3.399000000000000112e-03 5.719000000000000125e-03 5.220000000000000031e-04 3.807000000000000054e-03 -5.296000000000000360e-03 -4.009999999999999893e-04 3.831999999999999903e-03 -5.141999999999999869e-03 8.279999999999999600e-04 -3.269999999999999903e-03 4.924000000000000425e-03 -4.400000000000000157e-04 -3.151000000000000155e-03 4.893999999999999913e-03 3.200000000000000262e-04 3.494999999999999843e-03 -6.594000000000000035e-03 5.509999999999999490e-04 3.837000000000000133e-03 -4.781999999999999792e-03 -1.200000000000000030e-05 -3.367999999999999900e-03 5.772000000000000221e-03 6.660000000000000338e-04 -3.543000000000000142e-03 4.854999999999999941e-03 -2.939999999999999905e-04 3.762000000000000153e-03 -5.067999999999999589e-03 1.430000000000000064e-04 3.498999999999999940e-03 -6.311999999999999902e-03 -3.719999999999999891e-04 -3.086999999999999900e-03 5.057999999999999996e-03 2.139999999999999975e-04 -3.621000000000000087e-03 5.544000000000000317e-03 4.859999999999999954e-04 3.680000000000000111e-03 -5.155999999999999993e-03 -1.710000000000000094e-04 3.950000000000000386e-03 -4.956999999999999601e-03 8.480000000000000124e-04 -3.285999999999999859e-03 4.963999999999999663e-03 -4.079999999999999968e-04 -3.380000000000000192e-03 4.732000000000000095e-03 -2.410000000000000033e-04 -6.419999999999999925e-04 -1.157999999999999958e-03 -6.099999999999999872e-05 -4.169999999999999987e-04 9.431999999999999412e-03 -1.179999999999999951e-04 -5.580000000000000107e-04 -8.994000000000000258e-03 -1.230000000000000082e-04 -5.670000000000000127e-04 -9.218999999999999764e-03 1.069999999999999988e-04 -4.470000000000000232e-04 -3.890000000000000228e-04 0.000000000000000000e+00 -9.520000000000000467e-04 1.018100000000000081e-02 -6.700000000000000226e-04 -6.040000000000000447e-04 -4.420000000000000101e-04 -3.420000000000000188e-04 -5.109999999999999525e-04 9.502000000000000030e-03 2.469999999999999865e-04 -7.699999999999999597e-04 -8.810999999999999388e-03 5.099999999999999960e-05 -2.269999999999999882e-04 -9.178999999999999659e-03 -2.930000000000000204e-04 -3.739999999999999835e-04 -1.325999999999999922e-03 -1.289999999999999914e-04 -7.280000000000000230e-04 9.712000000000000147e-03 2.880000000000000073e-04 -6.269999999999999532e-04 -6.689999999999999983e-04 7.299999999999999903e-05 -4.989999999999999861e-04 9.608999999999999486e-03 5.399999999999999798e-05 -3.820000000000000153e-04 -9.213000000000000703e-03 9.399999999999999448e-05 -2.919999999999999961e-04 -9.405999999999999431e-03 -3.690000000000000246e-04 -4.650000000000000270e-04 -5.230000000000000274e-04 -2.049999999999999956e-04 -8.249999999999999955e-04 1.021000000000000033e-02 -2.500000000000000052e-04 4.300000000000000165e-05 -9.859999999999998974e-04 -1.060000000000000016e-04 8.530000000000000256e-04 9.743999999999999190e-03 -1.520000000000000084e-04 -1.450000000000000009e-04 -8.456999999999999240e-03 -1.640000000000000019e-04 5.000000000000000409e-06 -7.793999999999999713e-03 1.150000000000000035e-04 -1.330000000000000073e-04 1.820000000000000057e-04 -5.399999999999999798e-05 2.719999999999999979e-04 9.978000000000000758e-03 -6.290000000000000018e-04 2.400000000000000061e-05 -3.080000000000000055e-04 -3.849999999999999798e-04 8.050000000000000515e-04 9.882999999999999424e-03 1.190000000000000058e-04 -4.220000000000000118e-04 -8.309000000000000413e-03 1.060000000000000016e-04 1.869999999999999917e-04 -7.723999999999999963e-03 -1.190000000000000058e-04 -4.500000000000000283e-05 -6.949999999999999798e-04 -1.749999999999999982e-04 4.360000000000000269e-04 9.579000000000000709e-03 2.809999999999999998e-04 6.799999999999999946e-05 -2.860000000000000129e-04 8.700000000000000051e-05 8.319999999999999488e-04 9.912999999999999937e-03 8.700000000000000051e-05 -2.369999999999999874e-04 -8.519999999999999796e-03 5.399999999999999798e-05 2.290000000000000098e-04 -7.822000000000000827e-03 -6.290000000000000018e-04 -5.700000000000000314e-05 5.099999999999999960e-05 -1.599999999999999928e-05 3.130000000000000187e-04 9.974000000000000227e-03 -3.200000000000000262e-04 -3.789999999999999966e-04 -1.048000000000000103e-03 -9.100000000000000287e-05 -4.180000000000000230e-04 9.872999999999999832e-03 -1.939999999999999993e-04 4.159999999999999744e-04 -7.898000000000000506e-03 -3.600000000000000091e-05 1.720000000000000066e-04 -8.451000000000000179e-03 1.399999999999999877e-04 -4.769999999999999934e-04 6.999999999999999387e-05 -3.100000000000000135e-05 1.969999999999999909e-04 1.025799999999999976e-02 -6.419999999999999925e-04 -3.710000000000000190e-04 -2.460000000000000164e-04 -3.970000000000000005e-04 -5.180000000000000143e-04 1.012200000000000079e-02 1.890000000000000133e-04 1.890000000000000133e-04 -7.686000000000000124e-03 4.100000000000000047e-05 3.170000000000000075e-04 -8.469000000000000833e-03 -1.250000000000000026e-04 -5.710000000000000015e-04 -7.969999999999999654e-04 -1.500000000000000038e-05 1.969999999999999909e-04 9.983999999999999819e-03 3.680000000000000003e-04 -4.139999999999999800e-04 -3.620000000000000171e-04 1.140000000000000063e-04 -5.559999999999999621e-04 1.012399999999999932e-02 1.099999999999999971e-05 3.099999999999999999e-04 -8.054000000000000395e-03 5.000000000000000240e-05 3.260000000000000094e-04 -8.687999999999999542e-03 -5.680000000000000370e-04 -6.059999999999999849e-04 -8.000000000000000654e-05 -2.010000000000000068e-04 1.659999999999999963e-04 1.037199999999999928e-02 -1.759999999999999954e-04 -7.410000000000000137e-04 -2.132999999999999913e-03 -1.659999999999999963e-04 1.389999999999999905e-04 9.107999999999999777e-03 -1.279999999999999942e-04 -5.630000000000000239e-04 -8.574000000000000024e-03 0.000000000000000000e+00 3.899999999999999929e-05 -8.361000000000000376e-03 2.149999999999999947e-04 -2.809999999999999998e-04 -8.750000000000000182e-04 3.399999999999999973e-05 3.999999999999999819e-06 9.211000000000000437e-03 -6.710000000000000469e-04 -5.590000000000000351e-04 -1.142000000000000003e-03 -2.809999999999999998e-04 -9.000000000000000228e-06 9.244000000000000480e-03 7.299999999999999903e-05 -7.429999999999999539e-04 -8.481000000000000691e-03 -1.330000000000000073e-04 2.930000000000000204e-04 -8.430999999999999259e-03 -2.339999999999999958e-04 -3.139999999999999888e-04 -1.512000000000000106e-03 -6.700000000000000226e-05 2.199999999999999943e-05 9.010999999999999913e-03 2.180000000000000134e-04 -6.520000000000000188e-04 -1.170000000000000033e-03 1.200000000000000030e-05 -2.900000000000000017e-05 9.289000000000000382e-03 1.890000000000000133e-04 -5.860000000000000408e-04 -8.665000000000000827e-03 1.169999999999999979e-04 2.860000000000000129e-04 -8.285999999999999963e-03 -5.820000000000000520e-04 -1.720000000000000066e-04 -9.370000000000000074e-04 -3.020000000000000223e-04 -2.199999999999999943e-05 9.414999999999999758e-03 -2.359999999999999902e-04 -2.799999999999999755e-04 -1.520000000000000084e-03 -1.240000000000000054e-04 2.869999999999999830e-04 8.609000000000000333e-03 -7.799999999999999859e-05 3.229999999999999907e-04 -8.980000000000000135e-03 -5.500000000000000196e-05 -8.299999999999999815e-05 -9.376000000000000653e-03 2.449999999999999921e-04 -6.310000000000000504e-04 -6.980000000000000527e-04 2.099999999999999884e-05 6.700000000000000226e-05 9.560000000000000789e-03 -6.449999999999999570e-04 -1.759999999999999954e-04 -7.119999999999999593e-04 -3.020000000000000223e-04 1.029999999999999964e-04 8.843000000000000166e-03 1.250000000000000026e-04 1.320000000000000101e-04 -8.635999999999999580e-03 -4.500000000000000283e-05 2.539999999999999940e-04 -9.275999999999999523e-03 -1.759999999999999954e-04 -6.359999999999999551e-04 -1.333999999999999899e-03 -1.230000000000000082e-04 1.440000000000000036e-04 9.273999999999999258e-03 2.509999999999999753e-04 -2.439999999999999949e-04 -7.600000000000000418e-04 7.999999999999999638e-06 1.579999999999999916e-04 8.881000000000000005e-03 5.199999999999999680e-05 4.290000000000000193e-04 -8.975000000000000339e-03 2.400000000000000061e-05 1.160000000000000007e-04 -9.308000000000000301e-03 -6.520000000000000188e-04 -6.089999999999999494e-04 -6.350000000000000392e-04 -2.100000000000000087e-04 1.179999999999999951e-04 9.473999999999999783e-03 -2.139999999999999975e-04 -7.339999999999999520e-04 -2.092000000000000109e-03 -2.090000000000000115e-04 1.110000000000000011e-04 8.576999999999999555e-03 -1.160000000000000007e-04 -1.649999999999999991e-04 -9.877999999999999628e-03 -8.100000000000000375e-05 -4.769999999999999934e-04 -9.015999999999999709e-03 1.379999999999999933e-04 -6.710000000000000469e-04 -1.002999999999999985e-03 8.500000000000000611e-05 -7.700000000000000139e-05 8.767000000000000487e-03 -5.919999999999999698e-04 -7.479999999999999670e-04 -1.373000000000000088e-03 -3.510000000000000208e-04 7.200000000000000182e-05 8.739999999999999505e-03 -3.399999999999999973e-05 -4.749999999999999990e-04 -9.601999999999999424e-03 -3.699999999999999811e-05 -2.239999999999999966e-04 -9.074999999999999734e-03 -2.059999999999999928e-04 -7.569999999999999689e-04 -1.670999999999999959e-03 -6.200000000000000270e-05 3.199999999999999855e-05 8.403000000000000747e-03 1.499999999999999869e-04 -7.649999999999999465e-04 -1.263999999999999933e-03 4.699999999999999724e-05 1.469999999999999953e-04 8.621999999999999456e-03 2.069999999999999900e-04 -1.630000000000000047e-04 -9.920999999999999264e-03 1.369999999999999961e-04 -1.090000000000000067e-04 -9.143999999999999351e-03 -5.320000000000000293e-04 -7.200000000000000453e-04 -1.085000000000000027e-03 -3.669999999999999760e-04 1.999999999999999909e-06 8.777000000000000079e-03 -2.039999999999999984e-04 -2.869999999999999830e-04 -1.394000000000000057e-03 -2.790000000000000054e-04 -1.820000000000000057e-04 9.244999999999999746e-03 -3.499999999999999693e-05 1.029999999999999964e-04 -8.302000000000000351e-03 8.500000000000000611e-05 5.000000000000000409e-06 -8.292000000000000759e-03 2.730000000000000222e-04 -4.249999999999999763e-04 -4.110000000000000155e-04 1.099999999999999971e-05 3.110000000000000243e-04 9.870000000000000301e-03 -6.179999999999999513e-04 -2.480000000000000108e-04 -5.659999999999999884e-04 -2.349999999999999930e-04 -2.719999999999999979e-04 9.138999999999999554e-03 3.600000000000000091e-05 -3.040000000000000167e-04 -8.229999999999999469e-03 4.899999999999999842e-05 3.539999999999999853e-04 -8.361999999999999642e-03 -3.640000000000000115e-04 -4.800000000000000122e-04 -1.023999999999999954e-03 -8.399999999999999535e-05 4.169999999999999987e-04 9.525999999999999746e-03 2.220000000000000022e-04 -3.559999999999999797e-04 -5.429999999999999714e-04 1.499999999999999869e-04 -1.640000000000000019e-04 9.492000000000000437e-03 1.320000000000000101e-04 -5.099999999999999960e-05 -8.548999999999999308e-03 5.800000000000000034e-05 2.500000000000000052e-04 -8.370999999999999969e-03 -5.270000000000000162e-04 -4.449999999999999746e-04 -2.849999999999999886e-04 -2.790000000000000054e-04 3.519999999999999908e-04 9.903000000000000344e-03 -2.439999999999999949e-04 -3.310000000000000225e-04 -1.706000000000000051e-03 -1.759999999999999954e-04 -6.599999999999999964e-04 8.774999999999999814e-03 -9.000000000000000228e-06 -1.219999999999999974e-04 -8.122000000000000747e-03 7.999999999999999638e-06 -7.649999999999999465e-04 -8.044000000000000802e-03 1.600000000000000131e-04 -3.289999999999999739e-04 -1.005999999999999950e-03 1.699999999999999987e-05 -8.649999999999999920e-04 9.136000000000000024e-03 -5.370000000000000424e-04 -2.169999999999999891e-04 -9.550000000000000112e-04 -2.400000000000000061e-04 -8.109999999999999805e-04 8.859000000000000555e-03 9.899999999999999404e-05 -4.070000000000000267e-04 -7.877999999999999586e-03 9.999999999999999547e-07 -5.460000000000000443e-04 -8.028999999999999679e-03 -6.899999999999999667e-05 -3.849999999999999798e-04 -1.794999999999999938e-03 4.600000000000000004e-05 -7.759999999999999971e-04 8.906999999999999987e-03 2.169999999999999891e-04 -1.830000000000000029e-04 -9.979999999999999722e-04 6.600000000000000506e-05 -8.130000000000000291e-04 8.965000000000000746e-03 4.199999999999999768e-05 -4.000000000000000327e-05 -8.087999999999999703e-03 -6.999999999999999895e-06 -5.640000000000000482e-04 -8.132000000000000339e-03 -5.850000000000000165e-04 -3.429999999999999889e-04 -1.064999999999999974e-03 -3.440000000000000132e-04 -8.639999999999999677e-04 9.475000000000000783e-03 -3.950000000000000061e-04 -1.800000000000000113e-04 -1.925000000000000062e-03 -1.450000000000000009e-04 2.950000000000000148e-04 9.162999999999999270e-03 -2.799999999999999958e-05 -2.660000000000000146e-04 -8.500999999999999876e-03 -8.100000000000000375e-05 1.000000000000000048e-04 -8.151000000000000259e-03 1.890000000000000133e-04 -1.050000000000000044e-04 -4.470000000000000232e-04 -5.599999999999999916e-05 -3.710000000000000190e-04 9.070999999999999203e-03 -4.970000000000000459e-04 -8.899999999999999491e-05 -1.245000000000000013e-03 -2.439999999999999949e-04 2.970000000000000092e-04 9.459000000000000394e-03 2.900000000000000017e-05 -4.989999999999999861e-04 -8.269999999999999574e-03 4.300000000000000165e-05 2.880000000000000073e-04 -8.241999999999999327e-03 -2.320000000000000014e-04 -2.039999999999999984e-04 -1.240999999999999916e-03 -5.000000000000000240e-05 -2.939999999999999905e-04 8.744999999999999302e-03 2.180000000000000134e-04 -1.330000000000000073e-04 -1.237999999999999951e-03 7.600000000000000418e-05 3.099999999999999999e-04 9.476999999999999313e-03 1.230000000000000082e-04 -1.959999999999999937e-04 -8.397999999999999216e-03 -1.299999999999999920e-05 2.719999999999999979e-04 -8.354000000000000314e-03 -5.999999999999999474e-04 -3.029999999999999924e-04 -4.339999999999999782e-04 -2.290000000000000098e-04 -3.020000000000000223e-04 9.162999999999999270e-03