1.213800009943563296e+01 9.359940154107361345e-07 1.801417993299999409e+01 3.034500099435660125e+00 2.474939649777346120e-07 1.801417998324999914e+01 6.069000099435650775e+00 4.769939817887350842e-07 1.801417996649999509e+01 9.103500099435642312e+00 7.064939985997356093e-07 1.801417994974999459e+01 1.062074990068310143e+01 2.627950821243999258e+00 1.801417993874999723e+01 1.517249900683128816e+00 2.627950132743948508e+00 1.801417998900000228e+01 4.551749900683120131e+00 2.627950362243965721e+00 1.801417997225000178e+01 7.586249900683110781e+00 2.627950591743982489e+00 1.801417995549999773e+01 9.103499701929814947e+00 5.255910706493984286e+00 1.801417994449998972e+01 -2.980701586161172726e-07 5.255910017993933536e+00 1.801417999474999476e+01 3.034499701929832760e+00 5.255910247493949861e+00 1.801417997799999426e+01 6.068999701929823409e+00 5.255910476993967073e+00 1.801417996124999021e+01 7.586249503177283415e+00 7.883860591743967916e+00 1.801417995024999286e+01 -1.517250496822689865e+00 7.883859903243918055e+00 1.801418000049999790e+01 1.517249503177301229e+00 7.883860132743934379e+00 1.801417998374999740e+01 4.551749503177292766e+00 7.883860362243951592e+00 1.801417996699999691e+01 -3.948426471749829918e-08 1.751970016832538946e+00 1.685146999824999625e+01 3.034499960515726347e+00 1.751970246332555714e+00 1.685146998149999575e+01 6.068999960570915952e+00 1.751970475842561381e+00 1.686146996474999682e+01 9.103499960570907490e+00 1.751970705342578150e+00 1.686146994799999632e+01 -1.517250238181597322e+00 4.379919902092511919e+00 1.686147000400000096e+01 1.517249761818393772e+00 4.379920131592529131e+00 1.686146998725000046e+01 4.551749761818385309e+00 4.379920361092545456e+00 1.686146997049999996e+01 7.586249761818375958e+00 4.379920590592562668e+00 1.686146995374999946e+01 -3.034500436934884693e+00 7.007879787342496058e+00 1.686147000974999699e+01 -4.369348936292667556e-07 7.007880016842512383e+00 1.686146999299999294e+01 3.034499563065097494e+00 7.007880246342529595e+00 1.686146997624999244e+01 6.068999563065088587e+00 7.007880475842545920e+00 1.686146995949999194e+01 -4.551750635687415780e+00 9.635829672592480577e+00 1.686147001550000013e+01 -1.517250635687424687e+00 9.635829902092496013e+00 1.686146999874999608e+01 1.517249364312566406e+00 9.635830131592513226e+00 1.686146998199999558e+01 4.551749364312557944e+00 9.635830361092530438e+00 1.686146996524999508e+01 1.517249940112195050e+00 8.759801159014212191e-01 1.152709990750003355e+00 4.551749940112186366e+00 8.759803454014380986e-01 1.152709974000001969e+00 7.586249940112177015e+00 8.759805749014548670e-01 1.152709957250000361e+00 1.062074994011216944e+01 8.759808044014717465e-01 1.152709940499998975e+00 -2.586410924526745067e-07 3.503940001151405248e+00 1.152709996499996725e+00 3.034499741358898550e+00 3.503940230651422016e+00 1.152709979749995117e+00 6.068999741358890532e+00 3.503940460151438785e+00 1.152709962999993731e+00 9.103499741358881181e+00 3.503940689651455997e+00 1.152709946249992345e+00 -1.517250457393623631e+00 6.131889886401388878e+00 1.152710002249999865e+00 1.517249542606367463e+00 6.131890115901406091e+00 1.152709985499998480e+00 4.551749542606359000e+00 6.131890345401422415e+00 1.152709968749997094e+00 7.586249542606349650e+00 6.131890574901439628e+00 1.152709951999995486e+00 -3.034500656146911002e+00 8.759849771651373018e+00 1.152710007999993236e+00 -6.561469199184986024e-07 8.759850001151390231e+00 1.152709991249991850e+00 3.034499343853071185e+00 8.759850230651407443e+00 1.152709974499990242e+00 6.068999343853062278e+00 8.759850460151422880e+00 1.152709957749988856e+00
9.943561365115278330e-08 1.799393817796516812e-08 1.801417000000000002e+01 3.034500099435604614e+00 2.474939549889656503e-07 1.801416998324999952e+01 -7.950108986290717276e-07 1.051180999999997034e+01 -1.049999973499300525e-08 3.034499204989092647e+00 1.051181022949998756e+01 -2.725000119240300075e-08 -1.517250099316917344e+00 2.627949903243921970e+00 1.801417000575000316e+01 1.517249900683073749e+00 2.627950132743938738e+00 1.801416998900000266e+01 4.551749900683065064e+00 2.627950362243955951e+00 1.801416997225000216e+01 7.586249900683110781e+00 2.627950591743982489e+00 1.801417995549999773e+01 9.103499701929814947e+00 5.255910706493984286e+00 1.801417994449998972e+01 -3.975058274658240956e-07 5.255909999999984983e+00 -5.250004861878884931e-09 3.034499602494163728e+00 5.255910229500001307e+00 -2.200000631928888126e-08 6.068999701929823409e+00 5.255910476993967073e+00 1.801417996124999021e+01 7.586249503177283415e+00 7.883860591743967916e+00 1.801417995024999286e+01 -1.517250496822689865e+00 7.883859903243918055e+00 1.801418000049999790e+01 1.517249503177301229e+00 7.883860132743934379e+00 1.801417998374999740e+01 4.551749503177292766e+00 7.883860362243951592e+00 1.801417996699999691e+01 -3.948426471749829918e-08 1.751970016832538946e+00 1.685146999824999625e+01 3.034499960515726347e+00 1.751970246332555714e+00 1.685146998149999575e+01 6.068999960570915952e+00 1.751970475842561381e+00 1.686146996474999682e+01 9.103499960570907490e+00 1.751970705342578150e+00 1.686146994799999632e+01 -1.517250238181597322e+00 4.379919902092511919e+00 1.686147000400000096e+01 1.517249761818393772e+00 4.379920131592529131e+00 1.686146998725000046e+01 4.551749761818385309e+00 4.379920361092545456e+00 1.686146997049999996e+01 7.586249761818375958e+00 4.379920590592562668e+00 1.686146995374999946e+01 -3.034500436934884693e+00 7.007879787342496058e+00 1.686147000974999699e+01 -4.369348936292667556e-07 7.007880016842512383e+00 1.686146999299999294e+01 3.034499563065097494e+00 7.007880246342529595e+00 1.686146997624999244e+01 6.068999563065088587e+00 7.007880475842545920e+00 1.686146995949999194e+01 -4.551750635687415780e+00 9.635829672592480577e+00 1.686147001550000013e+01 -1.517250635687424687e+00 9.635829902092496013e+00 1.686146999874999608e+01 1.517249364312566406e+00 9.635830131592513226e+00 1.686146998199999558e+01 4.551749364312557944e+00 9.635830361092530438e+00 1.686146996524999508e+01 1.517249940112195050e+00 8.759801159014212191e-01 1.152709990750003355e+00 4.551749940112186366e+00 8.759803454014380986e-01 1.152709974000001969e+00 7.586249940112177015e+00 8.759805749014548670e-01 1.152709957250000361e+00 1.062074994011216944e+01 8.759808044014717465e-01 1.152709940499998975e+00 -2.586410924526745067e-07 3.503940001151405248e+00 1.152709996499996725e+00 3.034499741358898550e+00 3.503940230651422016e+00 1.152709979749995117e+00 6.068999741358890532e+00 3.503940460151438785e+00 1.152709962999993731e+00 9.103499741358881181e+00 3.503940689651455997e+00 1.152709946249992345e+00 -1.517250457393623631e+00 6.131889886401388878e+00 1.152710002249999865e+00 1.517249542606367463e+00 6.131890115901406091e+00 1.152709985499998480e+00 4.551749542606359000e+00 6.131890345401422415e+00 1.152709968749997094e+00 7.586249542606349650e+00 6.131890574901439628e+00 1.152709951999995486e+00 -3.034500656146911002e+00 8.759849771651373018e+00 1.152710007999993236e+00 -6.561469199184986024e-07 8.759850001151390231e+00 1.152709991249991850e+00 3.034499343853071185e+00 8.759850230651407443e+00 1.152709974499990242e+00 6.068999343853062278e+00 8.759850460151422880e+00 1.152709957749988856e+00
9.943561365115278330e-08 1.799393817796516812e-08 1.801417000000000002e+01 3.034500099435604614e+00 2.474939549889656503e-07 1.801416998324999952e+01 -7.950108986290717276e-07 1.051180999999997034e+01 -1.049999973499300525e-08 3.034499204989092647e+00 1.051181022949998756e+01 -2.725000119240300075e-08 -1.517250099316917344e+00 2.627949903243921970e+00 1.801417000575000316e+01 1.517249900683073749e+00 2.627950132743938738e+00 1.801416998900000266e+01 4.551749900683065064e+00 2.627950362243955951e+00 1.801416997225000216e+01 7.586249900683110781e+00 2.627950591743982489e+00 1.801417995549999773e+01 9.103499701929814947e+00 5.255910706493984286e+00 1.801417994449998972e+01 -3.975058274658240956e-07 5.255909999999984983e+00 -5.250004861878884931e-09 3.034499602494163728e+00 5.255910229500001307e+00 -2.200000631928888126e-08 6.068999701929823409e+00 5.255910476993967073e+00 1.801417996124999021e+01 7.586249503177283415e+00 7.883860591743967916e+00 1.801417995024999286e+01 -1.517250496822689865e+00 7.883859903243918055e+00 1.801418000049999790e+01 1.517249503177301229e+00 7.883860132743934379e+00 1.801417998374999740e+01 4.551749503177292766e+00 7.883860362243951592e+00 1.801417996699999691e+01 -3.948426471749829918e-08 1.751970016832538946e+00 1.685146999824999625e+01 3.034499960515726347e+00 1.751970246332555714e+00 1.685146998149999575e+01 6.068999960570915952e+00 1.751970475842561381e+00 1.686146996474999682e+01 9.103499960570907490e+00 1.751970705342578150e+00 1.686146994799999632e+01 -1.517250238181597322e+00 4.379919902092511919e+00 1.686147000400000096e+01 1.517249761818393772e+00 4.379920131592529131e+00 1.686146998725000046e+01 4.551749761818385309e+00 4.379920361092545456e+00 1.686146997049999996e+01 7.586249761818375958e+00 4.379920590592562668e+00 1.686146995374999946e+01 -3.034500436934884693e+00 7.007879787342496058e+00 1.686147000974999699e+01 -4.369348936292667556e-07 7.007880016842512383e+00 1.686146999299999294e+01 3.034499563065097494e+00 7.007880246342529595e+00 1.686146997624999244e+01 6.068999563065088587e+00 7.007880475842545920e+00 1.686146995949999194e+01 -4.551750635687415780e+00 9.635829672592480577e+00 1.686147001550000013e+01 -1.517250635687424687e+00 9.635829902092496013e+00 1.686146999874999608e+01 1.517249364312566406e+00 9.635830131592513226e+00 1.686146998199999558e+01 4.551749364312557944e+00 9.635830361092530438e+00 1.686146996524999508e+01 1.517249940112195050e+00 8.759801159014212191e-01 1.152709990750003355e+00 4.551749940112186366e+00 8.759803454014380986e-01 1.152709974000001969e+00 7.586249940112177015e+00 8.759805749014548670e-01 1.152709957250000361e+00 1.062074994011216944e+01 8.759808044014717465e-01 1.152709940499998975e+00 -2.586410924526745067e-07 3.503940001151405248e+00 1.152709996499996725e+00 3.034499741358898550e+00 3.503940230651422016e+00 1.152709979749995117e+00 6.068999741358890532e+00 3.503940460151438785e+00 1.152709962999993731e+00 9.103499741358881181e+00 3.503940689651455997e+00 1.152709946249992345e+00 -1.517250457393623631e+00 6.131889886401388878e+00 1.152710002249999865e+00 1.517249542606367463e+00 6.131890115901406091e+00 1.152709985499998480e+00 4.551749542606359000e+00 6.131890345401422415e+00 1.152709968749997094e+00 7.586249542606349650e+00 6.131890574901439628e+00 1.152709951999995486e+00 -3.034500656146911002e+00 8.759849771651373018e+00 1.152710007999993236e+00 -6.561469199184986024e-07 8.759850001151390231e+00 1.152709991249991850e+00 3.034499343853071185e+00 8.759850230651407443e+00 1.152709974499990242e+00 6.068999343853062278e+00 8.759850460151422880e+00 1.152709957749988856e+00
9.943561365115278330e-08 1.799393817796516812e-08 1.801417000000000002e+01 3.034500099435604614e+00 2.474939549889656503e-07 1.801416998324999952e+01 -7.950108986290717276e-07 1.051180999999997034e+01 -1.049999973499300525e-08 3.034499204989092647e+00 1.051181022949998756e+01 -2.725000119240300075e-08 -1.517250099316917344e+00 2.627949903243921970e+00 1.801417000575000316e+01 1.517249900683073749e+00 2.627950132743938738e+00 1.801416998900000266e+01 4.551749900683065064e+00 2.627950362243955951e+00 1.801416997225000216e+01 7.586249900683055714e+00 2.627950591743972719e+00 1.801416995549999811e+01 9.103499701929814947e+00 5.255910706493984286e+00 1.801417994449998972e+01 -3.975058274658240956e-07 5.255909999999984983e+00 -5.250004861878884931e-09 3.034499602494163728e+00 5.255910229500001307e+00 -2.200000631928888126e-08 6.068999701929823409e+00 5.255910476993967073e+00 1.801417996124999021e+01 7.586249503177228348e+00 7.883860591743957258e+00 1.801416995024999324e+01 -1.517250496822689865e+00 7.883859903243918055e+00 1.801418000049999790e+01 1.517249503177301229e+00 7.883860132743934379e+00 1.801417998374999740e+01 4.551749503177292766e+00 7.883860362243951592e+00 1.801417996699999691e+01 -3.948420951894424623e-08 1.751970016832548938e+00 1.685147999824999587e+01 3.034499960515781858e+00 1.751970246332565706e+00 1.685147998149999538e+01 6.068999960570915952e+00 1.751970475842561381e+00 1.686146996474999682e+01 9.103499960570907490e+00 1.751970705342578150e+00 1.686146994799999632e+01 -1.517250238181597322e+00 4.379919902092511919e+00 1.686147000400000096e+01 1.517249761818393772e+00 4.379920131592529131e+00 1.686146998725000046e+01 4.551749761818385309e+00 4.379920361092545456e+00 1.686146997049999996e+01 7.586249761818375958e+00 4.379920590592562668e+00 1.686146995374999946e+01 -3.034500436934884693e+00 7.007879787342496058e+00 1.686147000974999699e+01 -4.369348936292667556e-07 7.007880016842512383e+00 1.686146999299999294e+01 3.034499563065097494e+00 7.007880246342529595e+00 1.686146997624999244e+01 6.068999563065088587e+00 7.007880475842545920e+00 1.686146995949999194e+01 -4.551750635687415780e+00 9.635829672592480577e+00 1.686147001550000013e+01 -1.517250635687424687e+00 9.635829902092496013e+00 1.686146999874999608e+01 1.517249364312566406e+00 9.635830131592513226e+00 1.686146998199999558e+01 4.551749364312557944e+00 9.635830361092530438e+00 1.686146996524999508e+01 1.517249940111383477e+00 8.759901159014112926e-01 1.152699990749993519e+00 4.551749940112130410e+00 8.759803454014281066e-01 1.152699974000002126e+00 7.586249940112177015e+00 8.759805749014548670e-01 1.152709957250000361e+00 1.062074994011211437e+01 8.759808044014617545e-01 1.152699940499999132e+00 -2.586411476512285465e-07 3.503940001151395034e+00 1.152699996499996882e+00 3.034499741358843483e+00 3.503940230651411802e+00 1.152699979749995274e+00 6.068999741358890532e+00 3.503940460151438785e+00 1.152709962999993731e+00 9.103499741358881181e+00 3.503940689651455997e+00 1.152709946249992345e+00 -1.517250457393623631e+00 6.131889886401388878e+00 1.152710002249999865e+00 1.517249542606367463e+00 6.131890115901406091e+00 1.152709985499998480e+00 4.551749542606359000e+00 6.131890345401422415e+00 1.152709968749997094e+00 7.586249542606349650e+00 6.131890574901439628e+00 1.152709951999995486e+00 -3.034500656146911002e+00 8.759849771651373018e+00 1.152710007999993236e+00 -6.561469199184986024e-07 8.759850001151390231e+00 1.152709991249991850e+00 3.034499343853071185e+00 8.759850230651407443e+00 1.152709974499990242e+00 6.068999343853819006e+00 8.759840460151423258e+00 1.152709957749998848e+00
9.943485734857633286e-08 1.001799393817793651e-05 1.801416999999998936e+01 3.034500099434848330e+00 1.024749395498893682e-05 1.801416998324998886e+01 -7.950108986290717276e-07 1.051180999999997034e+01 -1.049999973499300525e-08 3.034499204989092647e+00 1.051181022949998756e+01 -2.725000119240300075e-08 -1.517240099316917279e+00 2.627949903244678254e+00 1.801417000574994987e+01 1.517249900683018460e+00 2.627950132743928524e+00 1.801415998900000304e+01 4.551739900683064555e+00 2.627950362243199667e+00 1.801416997225005545e+01 7.586249900683055714e+00 2.627950591743972719e+00 1.801416995549999811e+01 9.103499701929814947e+00 5.255910706493984286e+00 1.801417994449998972e+01 -3.975058274658240956e-07 5.255909999999984983e+00 -5.250004861878884931e-09 3.034499602494163728e+00 5.255910229500001307e+00 -2.200000631928888126e-08 6.068999701929823409e+00 5.255910476993967073e+00 1.801417996124999021e+01 7.586249503177228348e+00 7.883860591743957258e+00 1.801416995024999324e+01 -1.517250496822744932e+00 7.883859903243907397e+00 1.801417000049999828e+01 1.517249503177301229e+00 7.883860132743934379e+00 1.801417998374999740e+01 4.551749503177237699e+00 7.883860362243940934e+00 1.801416996699999729e+01 -3.948420951894424623e-08 1.751970016832548938e+00 1.685147999824999587e+01 3.034499960515781858e+00 1.751970246332565706e+00 1.685147998149999538e+01 6.068999960570915952e+00 1.751970475842561381e+00 1.686146996474999682e+01 9.103499960570907490e+00 1.751970705342578150e+00 1.686146994799999632e+01 -1.517250238181597322e+00 4.379919902092511919e+00 1.686147000400000096e+01 1.517249761818393772e+00 4.379920131592529131e+00 1.686146998725000046e+01 4.551749761818385309e+00 4.379920361092545456e+00 1.686146997049999996e+01 7.586249761818375958e+00 4.379920590592562668e+00 1.686146995374999946e+01 -3.034500436934884693e+00 7.007879787342496058e+00 1.686147000974999699e+01 -4.369348936292667556e-07 7.007880016842512383e+00 1.686146999299999294e+01 3.034499563065097494e+00 7.007880246342529595e+00 1.686146997624999244e+01 6.068999563065088587e+00 7.007880475842545920e+00 1.686146995949999194e+01 -4.551750635687415780e+00 9.635829672592480577e+00 1.686147001550000013e+01 -1.517250635687424687e+00 9.635829902092496013e+00 1.686146999874999608e+01 1.517249364312566406e+00 9.635830131592513226e+00 1.686146998199999558e+01 4.551749364312557944e+00 9.635830361092530438e+00 1.686146996524999508e+01 1.517249940111383477e+00 8.759901159014112926e-01 1.152699990749993519e+00 4.551749940112130410e+00 8.759803454014281066e-01 1.152699974000002126e+00 7.586249940112177015e+00 8.759805749014548670e-01 1.152709957250000361e+00 1.062074994011211437e+01 8.759808044014617545e-01 1.152699940499999132e+00 -2.586411476512285465e-07 3.503940001151395034e+00 1.152699996499996882e+00 3.034499741358843483e+00 3.503940230651411802e+00 1.152699979749995274e+00 6.068999741358890532e+00 3.503940460151438785e+00 1.152709962999993731e+00 9.103499741358881181e+00 3.503940689651455997e+00 1.152709946249992345e+00 -1.517250457393623631e+00 6.131889886401388878e+00 1.152710002249999865e+00 1.517249542606367463e+00 6.131890115901406091e+00 1.152709985499998480e+00 4.551749542606359000e+00 6.131890345401422415e+00 1.152709968749997094e+00 7.586249542606349650e+00 6.131890574901439628e+00 1.152709951999995486e+00 -3.034500656146911002e+00 8.759849771651373018e+00 1.152710007999993236e+00 -6.561469199184986024e-07 8.759850001151390231e+00 1.152709991249991850e+00 3.034499343853071185e+00 8.759850230651407443e+00 1.152709974499990242e+00 6.068999343853819006e+00 8.759840460151423258e+00 1.152709957749998848e+00
9.943485734857633286e-08 1.001799393817793651e-05 1.801416999999998936e+01 3.034500099434848330e+00 1.024749395498893682e-05 1.801416998324998886e+01 -7.950108986290717276e-07 1.051180999999997034e+01 -1.049999973499300525e-08 3.034499204989092647e+00 1.051181022949998756e+01 -2.725000119240300075e-08 -1.517240099316917279e+00 2.627949903244678254e+00 1.801417000574994987e+01 1.517249900683774744e+00 2.627940132743928903e+00 1.801415998900001370e+01 4.551739900683064555e+00 2.627950362243199667e+00 1.801416997225005545e+01 7.586249900683055714e+00 2.627950591743972719e+00 1.801416995549999811e+01 9.103499701929814947e+00 5.255910706493984286e+00 1.801417994449998972e+01 -3.975058274658240956e-07 5.255909999999984983e+00 -5.250004861878884931e-09 3.034499602494163728e+00 5.255910229500001307e+00 -2.200000631928888126e-08 6.068999701929823409e+00 5.255910476993967073e+00 1.801417996124999021e+01 7.586249503177228348e+00 7.883860591743957258e+00 1.801416995024999324e+01 -1.517250496822744932e+00 7.883859903243907397e+00 1.801417000049999828e+01 1.517249503177246162e+00 7.883860132743923721e+00 1.801416998374999778e+01 4.551749503177237699e+00 7.883860362243940934e+00 1.801416996699999729e+01 -3.948415432039019328e-08 1.751970016832558930e+00 1.685148999824999549e+01 3.034499960515836925e+00 1.751970246332575698e+00 1.685148998149999500e+01 6.068999960570915952e+00 1.751970475842561381e+00 1.686146996474999682e+01 9.103499960570907490e+00 1.751970705342578150e+00 1.686146994799999632e+01 -1.517250238181597322e+00 4.379919902092511919e+00 1.686147000400000096e+01 1.517249761818393772e+00 4.379920131592529131e+00 1.686146998725000046e+01 4.551749761818385309e+00 4.379920361092545456e+00 1.686146997049999996e+01 7.586249761818375958e+00 4.379920590592562668e+00 1.686146995374999946e+01 -3.034500436934884693e+00 7.007879787342496058e+00 1.686147000974999699e+01 -4.369348936292667556e-07 7.007880016842512383e+00 1.686146999299999294e+01 3.034499563065097494e+00 7.007880246342529595e+00 1.686146997624999244e+01 6.068999563065088587e+00 7.007880475842545920e+00 1.686146995949999194e+01 -4.551750635687415780e+00 9.635829672592480577e+00 1.686147001550000013e+01 -1.517250635687424687e+00 9.635829902092496013e+00 1.686146999874999608e+01 1.517249364312566406e+00 9.635830131592513226e+00 1.686146998199999558e+01 4.551749364312557944e+00 9.635830361092530438e+00 1.686146996524999508e+01 1.517249940111383477e+00 8.759901159014112926e-01 1.152699990749993519e+00 4.551749940111374571e+00 8.759903454014281721e-01 1.152699973999992133e+00 7.586249940112121060e+00 8.759805749014448750e-01 1.152699957250000518e+00 1.062074994011211437e+01 8.759808044014617545e-01 1.152699940499999132e+00 -2.586411476512285465e-07 3.503940001151395034e+00 1.152699996499996882e+00 3.034499741358843483e+00 3.503940230651411802e+00 1.152699979749995274e+00 6.068999741358834576e+00 3.503940460151428571e+00 1.152699962999993888e+00 9.103499741358826114e+00 3.503940689651445783e+00 1.152699946249992502e+00 -1.517250457393678920e+00 6.131889886401379108e+00 1.152700002250000022e+00 1.517249542606312174e+00 6.131890115901396321e+00 1.152699985499998636e+00 4.551749542606303045e+00 6.131890345401412645e+00 1.152699968749997250e+00 7.586249542606293694e+00 6.131890574901429858e+00 1.152699951999995642e+00 -3.034500656146966069e+00 8.759849771651364136e+00 1.152700007999993392e+00 -6.561469751170526421e-07 8.759850001151381349e+00 1.152699991249992006e+00 3.034499343853016118e+00 8.759850230651398562e+00 1.152699974499990399e+00 6.068999343853763051e+00 8.759840460151414376e+00 1.152699957749999005e+00
