-4.702360309100000109e+02
-4.702360330399999953e+02
-4.702360373099999720e+02
-4.702360438399999794e+02
-4.702360527700000148e+02
-4.702360643000000096e+02
