-4.402851940534127195e-04 -1.624859446717886180e-01 3.879285767296186769e-03 4.819124915845035485e-04 -1.101229361900136171e-03 1.249150353530068119e-01 -6.411335354468609515e-05 -1.909605355978812871e-04 2.780000099234067063e-03 -2.624130058113201009e-03 4.316048514782216267e-03 3.276831954213251397e-03 1.629822277712119315e-03 4.242061757766808598e-03 4.446006228781698190e-03 9.818535661363680164e-04 -2.609498564127640135e-04 3.591043684933873433e-03 -3.050144453822548844e-03 3.353053597997107064e-03 3.611828260005479473e-03 -5.561482058989124103e-04 -1.068948255104950305e-03 3.618992511871708777e-03 3.598902453037311402e-03 4.187032285796056345e-03 2.476087189745845851e-03 -3.512727453606421515e-05 -2.795566698180175844e-05 3.124998968842593317e-03 4.988586490401116403e-05 -4.496031296266353921e-05 2.802002671437176743e-03 -2.212732391197610882e-05 -9.095567715440066659e-05 3.125000391412756113e-03 2.186868465061700374e-05 -3.995430800963195030e-05 3.224001459972238026e-03 -7.126763969149645473e-06 4.414095793879587863e-08 3.112999712060202442e-03 -2.312800036905057069e-05 1.890446355118662774e-04 3.146996380897682747e-03 -5.312755329842720444e-05 -1.995555364410990165e-05 3.131998122438657724e-03 4.187349677029303673e-05 2.104401752223793352e-05 3.107001409654451714e-03 3.873189032299044616e-06 -7.955853476417065189e-06 3.114000273410742845e-03 1.887465342793279719e-05 4.204363855076231226e-05 3.079000175367872273e-03 2.885709111794313062e-06 -3.596021945157005611e-05 2.806000629953584857e-03 -2.812805137212418465e-05 -3.195540308425970415e-05 3.143999310581942295e-03 5.187515375428239812e-05 -4.695658576827369874e-05 3.065002780989921870e-03 -5.712606699693984429e-05 -4.595607508793261490e-05 3.094998328211499058e-03 -9.126098354709212559e-06 -3.395609849516247720e-05 3.096000112678261047e-03 -2.124613604510914354e-06 -9.956614379188119513e-06 3.060000057491361284e-03 3.873656625820300970e-06 1.730440330829731746e-04 3.105997707242991700e-03 -4.129601134670681016e-06 -3.495488311964120137e-05 3.182000330380334568e-03 3.011625832016011080e-04 3.294316655574031598e-05 -3.991988207179051826e-03 -4.058550560215849366e-04 3.349499441557419457e-04 -3.553021278913451753e-03 1.161424850574328458e-04 -4.120498123143585714e-04 -3.506989431882620665e-03 3.110409106066606630e-05 1.096373728106184842e-05 -2.555998891232960125e-03 -2.238489029240289092e-04 -2.830525092679011243e-04 -3.716005105709201464e-03 2.031234326083851090e-04 1.659569106706858146e-04 -3.027994084361134829e-03 -3.187153186690458364e-05 2.519553649750783672e-04 -3.150004872935394627e-03 2.241370287250345433e-04 3.159522013623795563e-04 -3.358995355580084510e-03 -1.828654519741968842e-04 -9.604672849349637034e-05 -3.306006087777208901e-03 1.367530765230813442e-03 1.572814561434775042e-03 -1.300396662412996000e-02 -4.261562941674408578e-03 2.387851818789832239e-03 -1.068720739883200106e-02 2.895218928940093001e-03 -7.070786850196054745e-04 -5.389872084446710454e-03 1.197052971391687022e-03 3.370981538658696965e-03 -1.235999049232877536e-03 -4.786009678535332445e-04 -4.043139658622062552e-03 -9.876962175408343647e-03 -7.147727895569659434e-04 1.919215044359503749e-04 -5.576031832355693441e-03 -4.748996897063356206e-06 1.298912966298291973e-03 -6.139018614812195504e-03 -1.458850191895556282e-04 -1.750399662924110656e-04 -2.827003461507681704e-03 1.581740258762485117e-04 3.293929456369354354e-05 -4.272994029999544092e-03 6.913035207807006457e-05 5.795457702225587147e-05 -3.199998009596839287e-03 -5.086864155500393401e-05 4.295431653842267302e-05 -3.225002683409281239e-03 -1.386780052739294147e-05 7.695400400823004968e-05 -3.245001658763155966e-03 -3.787127120675147767e-05 1.295521374140023730e-05 -3.161001728764807270e-03 3.713030898308777140e-05 -4.904541208887567319e-05 -3.200997795642453961e-03 1.213111171698333699e-05 3.995435227673946733e-05 -3.219000075467947936e-03 1.129521237644514575e-06 -1.504510034853438901e-05 -3.180999743655644335e-03 -4.086988512855590356e-05 1.495473404514473240e-05 -3.195001879251280989e-03 4.712895345845240886e-05 -1.204493787752490859e-05 -3.166997913042798006e-03 -8.997031972730217724e-06 2.019990287587214396e-04 -6.900323033173812854e-05 -1.299949708309646129e-04 7.799837209060266768e-05 -1.220063994627845977e-04 1.189932160260253599e-04 1.250023028582724033e-04 1.690030734037473354e-04 2.760036637631878395e-04 -2.090015487986335990e-04 -9.398579780514490717e-05 -1.400006154229063628e-04 -5.799969188555601423e-05 1.399512137811039158e-05 -1.269924602956574989e-04 -4.400253762499004874e-05 -1.860045475535939406e-04 -4.500331867366594936e-05 7.800121198397886040e-05 8.299706161899264188e-05 -2.700054661212437766e-05 -7.399980871809937188e-05 1.199994968036124334e-05 8.700152618825978258e-05 2.499940729838570820e-05 -3.699681169564438980e-05 -1.427678940209690418e-03 2.929890134041029676e-03 -7.828099682945456952e-03 -1.469954656197788965e-04 1.940999065747902892e-03 -7.403350493521369119e-05 1.572208992189023935e-03 2.454693269812903075e-02 -4.660284004049945923e-03 7.957187229191853978e-03 1.262993202412753153e-02 -4.354855045291854826e-03 -1.646751682608526245e-03 -2.546085861056763232e-03 -6.147030964941759684e-03 -6.311123002484965439e-03 1.253705118819334156e-02 3.261565261055665056e-03 8.829411266922796483e-04 4.014020900992075307e-03 1.522979045553200361e-03 1.886007175440086378e-03 -9.100400036915088850e-05 -1.779219101328499914e-04 -2.774986295616210883e-03 2.259998018492457173e-03 -2.931450418349121887e-04 2.799489263315865615e-05 -2.199824969725411316e-05 1.250014519784277390e-04 7.996467441757822972e-06 -3.899878696963636368e-05 8.600087861963869062e-05 -3.600482535221096294e-05 7.800172951544189816e-05 1.199974280722575557e-04 9.994414184463056152e-06 -8.998065471089495047e-06 1.370005346810273953e-04 -3.153501889762320260e-09 2.900110586511479629e-05 7.799958877235077558e-05 -1.800332579818376703e-05 -3.499883750111636941e-05 8.099976317110378805e-05 1.599656141397844076e-05 -2.299882159080932103e-05 8.400097754409133720e-05 -5.700704465804616654e-05 2.497389378725201689e-09 1.729976787506658448e-04 3.899365454379168935e-05 -4.299783297423389521e-05 1.550021976129348905e-04 -4.310025445696575447e-02 1.612235835372780461e-05 6.248244698662668538e-03 3.017206827815395107e-02 -1.744305216270362890e-02 -2.011524065880669187e-03 1.292775789537255540e-02 1.747942710391182236e-02 3.083927863808855543e-02 2.608698106525103957e-04 4.094505629002479635e-02 3.984430115912527583e-03 1.670161715223364993e-03 3.597995219977822429e-02 -3.279442109060031873e-03 -1.921874101297306328e-03 1.001306113968081918e-03 2.148490756333135479e-02 -1.022896774481851399e-03 1.948313562191403368e-03 2.205993074449998440e-02 9.521060640025408783e-04 1.623310938294311593e-03 2.198401577602471582e-02 7.803457256873040280e-05 3.927337142432335386e-03 2.378394751876053426e-02 -1.048373229825406820e-04 -2.670839473741934211e-05 2.056199612871669608e-02 1.311574707978060321e-04 -7.070677894006530519e-05 2.068900636254109027e-02 -1.884966768701779480e-05 6.929586214281912421e-05 2.086699826936106936e-02 1.214081296362734774e-05 -2.270087287226278398e-05 2.109900083584602751e-02 -1.183515540230980103e-05 8.929080936468050829e-05 2.051099827118269686e-02 1.915979746359389602e-05 -6.370749937953722544e-05 2.063200170261441160e-02 3.715229311046292957e-05 2.529512358749730954e-05 2.081800117359587643e-02 -5.385501229946693119e-05 4.297732667634551739e-06 2.099699776556505915e-02 2.812713077309443756e-05 2.930389251159393142e-05 2.143600074982266943e-02 4.614354674170423299e-05 3.629816476542607198e-05 2.103300138392827368e-02 -3.586038589813065572e-05 6.299590042490067731e-06 2.112899847006214499e-02 -1.784746486960046266e-05 2.229508158581613552e-05 2.081199897648793387e-02 5.514684198798659964e-05 3.229700931743948551e-05 2.095200180720228553e-02 4.014481609491973792e-05 -5.870229839426689103e-05 2.100000248652137552e-02 -9.084958701915708953e-05 -3.570413818205388896e-05 2.086299682612867412e-02 1.115105980318731523e-05 1.142955976258767670e-04 2.084999885300305167e-02 -6.884672009857854217e-05 3.729486631679138070e-05 2.079399668707480539e-02 3.115088044819603772e-05 9.329563867925213822e-05 2.085399996514938903e-02 4.878647594420760830e-04 -9.203017160890312760e-04 -2.125396710564543198e-02 -4.960398297053170234e-04 -2.433339799522594852e-04 -2.358401677114283293e-02 5.836386460349706177e-06 -2.529121582922103740e-05 -2.053999942285770694e-02 -1.253096945278287487e-03 2.956866459463413656e-04 -2.217105523995516192e-02 1.297902250451493612e-03 -2.603152238206429586e-04 -2.216194347823584321e-02 -4.913587087336454144e-05 -6.230084201714015870e-05 -2.122200113729328513e-02 8.508582141715446663e-04 9.647007925190210879e-04 -2.105697904924374100e-02 -4.291318908109562178e-04 7.969810861652437955e-05 -2.131701862437080860e-02 -3.941292241462341869e-04 6.246973013779717450e-04 -2.137202492597098033e-02 1.358324102824983609e-04 -2.293290551789131226e-03 -2.048596197402971844e-02 1.505938552745470123e-03 -5.983281183100052063e-04 -2.305993021537997706e-02 -1.639240316274280995e-03 -1.930263741220462816e-03 -1.869303940173535836e-02 -9.830210434893828231e-04 -1.473340474739884406e-03 -2.406901916309740763e-02 2.195869877881272917e-03 -9.343048398472700213e-04 -2.137989735582590534e-02 -1.220161546264501721e-03 2.559709729685673285e-03 -2.054108599613880745e-02 -5.181240768965632423e-04 1.996695980551645676e-03 -2.147204942715503703e-02 1.062836560436315140e-03 2.068708466733376172e-03 -2.050398606918824376e-02 -5.420757384799897681e-04 1.220678957711756468e-03 -2.267403940139363708e-02 9.847734250646000804e-06 -4.229517456439820205e-05 -2.081899901869296507e-02 -2.415278098775177644e-05 -2.429496363300378371e-05 -2.080600065841373136e-02 7.844802351823981369e-06 -4.229415219713973672e-05 -2.074699910020159910e-02 -1.515095169170981410e-05 -2.829560868035728942e-05 -2.085100023517318449e-02 -1.151474022080177920e-06 -1.929543533187105342e-05 -2.083799979269322297e-02 -1.515307779469876358e-05 -3.929487143388947235e-05 -2.079900007926612643e-02 -3.155427076196430607e-06 -2.329405851932526094e-05 -2.074099981751404212e-02 3.484691114383977760e-05 -1.572949389273922585e-04 -2.080099637024562104e-02 -3.315434090938339972e-05 -4.029441782820160047e-05 -2.076800079809249661e-02
-4.352839684395480233e-04 -1.623249450585202980e-01 3.852283688305623618e-03 4.779192794309272251e-04 -1.117231726458364381e-03 1.247480354171228711e-01 -7.311214836706436248e-05 -2.119609538826597328e-04 2.750000030507327841e-03 -2.622130267204074699e-03 4.309048584105906222e-03 3.281832134894650289e-03 1.629823269900175856e-03 4.261061417497804572e-03 4.422005959426502340e-03 9.768533124125933741e-04 -2.729497674298013259e-04 3.597043651457201840e-03 -3.048144593200362556e-03 3.383053653139271848e-03 3.615827916110559218e-03 -5.341475457644107765e-04 -1.057948499176700370e-03 3.602993251789908882e-03 3.568902420960661393e-03 4.198032323462628189e-03 2.477085812163984900e-03 -3.212712965240125459e-05 1.044288132900151696e-06 3.121998679852794681e-03 1.688503016665179827e-05 -1.895998939270886346e-05 2.823000959007718712e-03 7.871973647387682732e-06 -5.195544544790044856e-05 3.143001060088781475e-03 3.186921714753709618e-05 -3.595450015133647923e-05 3.211001810481779999e-03 -2.112683834705668279e-05 9.044180274568403968e-06 3.114999014366556362e-03 -1.912684059951067614e-05 2.140442353990911829e-04 3.118996189363029345e-03 -6.312696755188463215e-05 -5.195575847785281721e-05 3.116998168932521782e-03 4.387263533742479004e-05 -3.895570048179842251e-05 3.127002341743369968e-03 1.287356802458902155e-05 -4.395600229770688284e-05 3.104001150307183696e-03 -1.212847972529753477e-05 -6.955259658969488622e-06 3.154999607661247620e-03 3.388331909369802564e-05 -1.995940723613744746e-05 2.865001665400907817e-03 -2.912948835429749009e-05 -4.695490607691365760e-05 3.178999482495007117e-03 1.787174655267032898e-05 -2.995536821330768403e-05 3.149001155380918432e-03 -6.128651232942338123e-06 -1.795520764465604718e-05 3.159000007938034260e-03 -2.012802708798128675e-05 -9.554093513541058609e-07 3.143999196838083779e-03 -5.312618132704260683e-05 -3.595603568753926745e-05 3.097998349314479930e-03 1.887232066139379834e-05 1.830444892042696952e-04 3.138998176247447241e-03 2.087019367324728525e-05 -3.695483180536666349e-05 3.187001376752491687e-03 3.081632582364401225e-04 6.294293422701705736e-05 -4.007988347451124818e-03 -4.448542157145130450e-04 3.679496911333579655e-04 -3.573023334874247513e-03 1.441448374650297723e-04 -3.720506423766190918e-04 -3.563988858756340482e-03 5.710497749470005866e-05 -1.036594987126458291e-06 -2.577997662337218332e-03 -2.328482733231817593e-04 -3.110527290628388843e-04 -3.732005075204610813e-03 1.861251115798072267e-04 1.779563426908008141e-04 -3.068994946710651948e-03 -5.586999307438690057e-05 2.409548450118712232e-04 -3.188005694245098307e-03 2.091388666353091589e-04 2.709515609332717435e-04 -3.404995328350733826e-03 -1.458627401636471632e-04 -1.170477073745264325e-04 -3.373004283310402241e-03 1.354531245247385949e-03 1.509814387308736463e-03 -1.301696626028984137e-02 -4.241561580689640065e-03 2.357851321087890868e-03 -1.072120615905046773e-02 2.892219103554561754e-03 -7.440787535558637724e-04 -5.394871682027367610e-03 1.153053680921077573e-03 3.392981332085789198e-03 -1.253001152845319849e-03 -4.265999216670162525e-04 -4.007140053786376575e-03 -9.901960568300329987e-03 -7.217736509324069235e-04 2.359218218239857558e-04 -5.554032741243694442e-03 -3.575022554871367297e-05 1.289913415905940717e-03 -6.109019749586596174e-03 -1.318850669491873390e-04 -1.320399489031014130e-04 -2.825003501061454023e-03 1.791722725119901448e-04 2.993988776627732297e-05 -4.229993132368352858e-03 5.112992059382106831e-05 2.695473289726546588e-05 -3.189998303070787963e-03 -3.386946460521231825e-05 3.195458678450421175e-05 -3.205001835218006159e-03 -8.869455223065471672e-06 4.395456720839058018e-05 -3.205000987329889670e-03 -3.487184051742633532e-05 1.395540988144604246e-05 -3.147001620793031529e-03 1.312991903320998134e-05 -2.704525152123214872e-05 -3.190999084862973338e-03 2.913102555976259173e-05 3.395436732200041288e-05 -3.216999298148757319e-03 -1.287075517731560449e-05 -4.044990143129588154e-06 -3.174000469709465505e-03 -1.287094232647243294e-05 1.695508074373018625e-05 -3.169000767447146139e-03 3.312812889178977052e-05 2.695537081419225413e-05 -3.145999036087010134e-03 -2.900121444906108426e-05 2.170005047300547509e-04 3.399574248903888888e-05 -1.089964360150489335e-04 7.899886604821565017e-05 -8.600555853614016348e-05 1.349931079545577009e-04 1.430023328619053945e-04 1.720034697348340102e-04 2.689987929396619581e-04 -1.889998419842331466e-04 2.601363348207611477e-05 -1.820045856574820521e-04 -3.199826957839296853e-05 1.119930423894126959e-04 -8.299547602503240821e-05 -4.700152291966159829e-05 -1.120027133716447042e-04 -3.000600236866158573e-05 3.100212180047327745e-05 1.479983387262184488e-04 -1.700013160126471288e-05 -1.159999724995758623e-04 1.000952365163614078e-06 5.500067264430732767e-05 2.699973008776370312e-05 -1.599814313792862538e-05 -1.439678717814755126e-03 2.901890058373034122e-03 -7.834099774612716602e-03 -1.409935384495068073e-04 1.905998380519277006e-03 -1.220327643437649163e-04 1.583206234816456623e-03 2.435393359691443577e-02 -4.596280819871728998e-03 7.906191614497737330e-03 1.250993050451494268e-02 -4.464855420621390361e-03 -1.630750752286082858e-03 -2.502086185500634972e-03 -6.169030937209283964e-03 -6.268120301674401894e-03 1.245005019044319143e-02 3.193568245580896692e-03 8.719431220225636265e-04 4.014020214893060032e-03 1.473978597669388293e-03 1.905006664075597567e-03 -6.800383093705681141e-05 -1.649214625373233317e-04 -2.775989352029102023e-03 2.256999082610408082e-03 -2.181450400921927961e-04 -2.100511832121087450e-05 -8.799822550158427716e-05 1.240003923900414716e-04 5.699589415008179483e-05 -9.499864101946283942e-05 9.900366788401278469e-05 -3.500471810339790448e-05 7.001672028421910486e-06 1.159984754180332388e-04 -4.004099480774269576e-06 1.700143508760251432e-05 1.009995960007271508e-04 1.599786139652749136e-05 7.700075306524862965e-05 5.399955979563257397e-05 -1.400200157813685125e-05 -7.999294325274526200e-06 4.899954328464178476e-05 1.499888563698243759e-05 -1.899962894255211420e-05 2.700088016517346732e-05 -4.500485120267144285e-05 4.500173656573408976e-05 1.199975294507919207e-04 2.699637738999215809e-05 2.001240682689493267e-06 8.900107102471895373e-05 -4.277925343761885407e-02 7.012176673942920578e-05 6.224257004478959271e-03 2.995406928467710464e-02 -1.730205230393618010e-02 -2.033534942070410433e-03 1.281676309673712884e-02 1.741342536189545084e-02 3.071027505392639328e-02 3.048679576803990741e-04 4.065905682271361843e-02 4.024435962433144283e-03 1.663159920228028318e-03 3.566395274404728089e-02 -3.241437913968059012e-03 -1.953869683880669981e-03 9.223045794744331571e-04 2.137490738040968841e-02 -9.888937525236003116e-04 2.011312500584121372e-03 2.198693123587768319e-02 9.251079089999109236e-04 1.639310321432803494e-03 2.193901444975935103e-02 6.803635097323561959e-05 3.910336526441015280e-03 2.373994735261490338e-02 -1.338335461318036572e-04 -9.170970473674221505e-05 2.046799586945402191e-02 1.381608302488105029e-04 -9.670796117543243914e-05 2.060600701628605494e-02 1.542078042047506312e-07 2.629448620187218878e-05 2.077099965279031318e-02 -1.585835535773250755e-05 -7.011345064955316046e-07 2.107899938376999252e-02 1.816697775293985300e-05 1.612900627999738757e-04 2.045999847205666813e-02 6.162745854881460588e-06 9.291504168582775375e-06 2.056100013833261214e-02 -1.984458779262362408e-05 4.294076530152265488e-06 2.074099915031197422e-02 -8.852732753322786974e-06 3.296903476368006644e-06 2.094099961223318263e-02 3.413200316459662751e-05 1.130218647998801623e-05 2.131600124945907254e-02 -2.485016497641120539e-05 6.296022802896184436e-06 2.087799891822483822e-02 -2.585504912566271435e-05 9.297724921033492551e-06 2.099799883485914398e-02 5.015866041363744226e-05 -7.707112501997968082e-06 2.066100217097907935e-02 5.815608248188703988e-05 2.829378860930681876e-05 2.072500198628691309e-02 3.314999864241711648e-05 7.295920677836875580e-06 2.087400126586015647e-02 -9.084336532496239036e-05 5.293706788917629207e-06 2.071099624498166925e-02 -1.984212492790444446e-05 8.129324003246335656e-05 2.068199805867903390e-02 -2.839290963227995019e-06 8.292220105417149722e-06 2.061099978597623686e-02 1.215614363877143999e-05 1.062938246192667035e-04 2.072499900726220909e-02 5.398552127251755829e-04 -8.912984250258446008e-04 -2.101896539953477042e-02 -4.780537922669291298e-04 -2.373291310629855688e-04 -2.324101612355294888e-02 -6.217704430829346866e-05 -1.628648391391987379e-05 -2.021000231978221928e-02 -1.231104377645900671e-03 2.686892090819039325e-04 -2.198905396146601243e-02 1.296893163411431656e-03 -3.203120755610274926e-04 -2.193994266849725455e-02 -7.114460629634564344e-05 -1.412978049128482596e-04 -2.100900091330669753e-02 8.838502273994993394e-04 1.009703559701297928e-03 -2.085997834363814349e-02 -4.581446191462291962e-04 1.537025831436969047e-04 -2.100302085472188079e-02 -4.111383244438127646e-04 6.517004905123457590e-04 -2.114802600123329504e-02 1.148241768295172531e-04 -2.355287685603093574e-03 -2.028496195033310454e-02 1.484930717906562296e-03 -6.193253797282591419e-04 -2.286793077296329912e-02 -1.600247147221294138e-03 -1.917261389889002559e-03 -1.852503799808926169e-02 -1.048028968302822800e-03 -1.401337645004501527e-03 -2.387302283093389876e-02 2.221861102556158332e-03 -8.563017836314395365e-04 -2.116289740315105070e-02 -1.177170917528420164e-03 2.656712985255584025e-03 -2.030908562060093625e-02 -5.761346846647529083e-04 1.918699698022284560e-03 -2.121305068333961472e-02 1.053828788223370831e-03 2.023711167565997188e-03 -2.031398579785316863e-02 -4.770866047545773000e-04 1.176682678115008448e-03 -2.240803613096399582e-02 -7.154235223470998196e-06 -6.129448071737069478e-05 -2.077099944161454881e-02 -3.115347010193221972e-05 -2.029471712991276741e-05 -2.078900100018654315e-02 3.584417897882480721e-05 -5.829396145248867439e-05 -2.073199773318749536e-02 -7.152702694465502167e-06 -2.829500529912591398e-05 -2.080799990944634872e-02 2.284658389486946762e-05 -3.294773591214343181e-06 -2.078999904228163303e-02 -2.915397988517399208e-05 4.705465612914359651e-06 -2.077600127320101270e-02 -3.615457896334736340e-05 -3.229433041324743464e-05 -2.076200103368273930e-02 4.584612881944780615e-05 -1.682946781611291257e-04 -2.078199576637852070e-02 -8.155036318692545662e-06 -4.429419638018107128e-05 -2.075099972337596937e-02