1.720229999987686609e-01 -9.986990215785509584e-06 -3.600009495321106765e-04 -3.369013012489987472e-03 1.720529997451872017e-01 -1.400015326330130465e-05 1.319999960558569836e-04 2.500000961161173287e-05 -3.720000007535928153e-04 -3.577999996308606906e-03 -3.100027036133578488e-05 2.440000197810080710e-04 -8.950001255519920507e-04 1.689999932720454229e-03 4.100000032521694125e-04 6.090003054651713359e-04 -4.048999954079006078e-03 -1.379999993171411403e-04 -1.246999809829278877e-03 -2.492000094003269869e-03 3.080000093724599534e-04 2.739999919672089800e-04 1.030000206787397093e-04 -4.400000161532468060e-05 1.299998494537700840e-05 1.730000006265938056e-04 -3.570000002445637591e-04 4.599999129873048420e-05 1.060000033551308177e-04 -1.240000003597942582e-04 1.799997463346324171e-05 3.400000014242729419e-04 6.299999956102460578e-05 2.109999904187661961e-04 1.180000158391176644e-04 -1.190000012825569387e-04 -2.422999909365450028e-03 -1.160000182726701832e-03 5.260000145333065162e-04 1.788000205191474798e-03 -2.708999864717154347e-03 5.599999283645477693e-05 1.579999848804564892e-04 2.140000121423633113e-04 1.929999989141032758e-04 -7.799998982329775510e-04 -1.365000059257298181e-03 -2.659999943310463726e-04 -1.653999795563170427e-03 -1.224000104849203583e-03 2.026600001035246471e-02 -3.790996564332988362e-03 -4.230800024402518039e-02 4.273700006318623817e-02 -1.720999787853332670e-03 -1.322000109862491108e-03 2.032000001082018628e-02 -3.819000038494224647e-03 1.926999730575219665e-03 1.942900001915549152e-02 -3.499994165265668262e-05 7.050000175602184763e-04 2.022999999948899008e-02 6.360003252088702050e-04 -2.809999931507076425e-03 2.041499999929621487e-02 -4.799997360948054397e-04 -2.053000016643621948e-03 1.968100000470022343e-02 2.030001172551571095e-04 -2.199996372957659766e-05 2.094099999890144601e-02 -1.308999608377459664e-03 -3.732000079208249842e-03 1.981400001095329558e-02 7.070001713274944553e-04 -8.059999265568620029e-04 1.999499999690255644e-02 -1.310999737830839153e-03 -1.981000078821120759e-03 2.035300000921530517e-02 -1.476999827997346791e-03 -8.150000917343435064e-04 1.999400000896691190e-02 -4.746400004353389102e-02 2.616996438224030320e-03 2.797000025938035928e-02 1.426500097788015869e-02 -1.229499891244710888e-02 8.696999933540448466e-03 -1.283999815766418686e-03 -9.530000768130684552e-04 2.031900000803942355e-02 -3.297199875591652618e-02 -1.643400249346804731e-02 2.130001984162109520e-04 -1.529799811284262775e-02 -2.866500120780246866e-02 -5.086799988692445457e-02 -1.788799912590497906e-02 -1.386000138438657839e-02 -3.154799988741639749e-02 -3.004000176261744509e-03 8.799997529540252083e-04 -1.987499998429736667e-02 -3.122900123612637815e-02 1.636199763838436586e-02 2.420001560359499220e-04 1.246999948579824435e-03 -8.089999260661550999e-04 -2.040000000607516961e-02 -1.317999633725377116e-03 -6.322000119922901833e-03 -2.026499998640993172e-02 -2.009000049743612810e-03 -8.300001723022918006e-04 -2.038399998808154354e-02 -1.312000161892824032e-03 6.559998804549451628e-04 -2.034099999341321477e-02 3.800000892207996603e-04 -2.620999990986315302e-03 -1.974799999947949095e-02 -3.220001515877512154e-04 5.149999552639736430e-04 -2.040599999873702816e-02 4.899999078141292850e-04 -2.169999825930771350e-04 -1.967400000248797215e-02 -2.349999713083676168e-04 -1.873000038215120837e-03 -2.046499999683193752e-02 -3.772996991428504646e-03 -3.955900028232824106e-02 3.028000060340969076e-03 2.533999990039372419e-03 -1.334999828426353466e-03 -2.009600001265381131e-02 -3.806999935381183680e-03 -2.353000308434323277e-03 -2.053299997663555337e-02 -5.926999999819557510e-03 -1.465000468278025670e-03 -2.003999996582046111e-02
1.719339999987040679e-01 -8.986996944880690249e-06 -3.580009490418423744e-04 -3.366013005445333585e-03 1.719599997454160645e-01 -1.200015318696535933e-05 1.309999959691870303e-04 2.600000953398371511e-05 -3.740000007490718492e-04 -3.573999996319646155e-03 -3.100027006081251352e-05 2.420000197589286517e-04 -8.940001253416609249e-04 1.686999932793087570e-03 4.070000032496461843e-04 6.050003051681702082e-04 -4.044999954380529110e-03 -1.369999992990572201e-04 -1.241999809915948902e-03 -2.491000093627116201e-03 3.060000093438617957e-04 2.729999919396097221e-04 1.030000205981150747e-04 -4.900000160980482394e-05 1.299998501548741114e-05 1.720000006255949330e-04 -3.580000002435648537e-04 4.299999144447115768e-05 1.040000031272411625e-04 -1.250000003412369426e-04 1.699997477920390282e-05 3.380000013476437606e-04 6.199999956854220895e-05 2.139999903966867357e-04 1.180000160620129344e-04 -1.230000012991165029e-04 -2.418999909538790440e-03 -1.158000182428176256e-03 5.220000145092293245e-04 1.784000204737693157e-03 -2.702999865019675447e-03 5.599999285254093548e-05 1.589999847181562730e-04 2.160000122159958121e-04 1.909999989065856675e-04 -7.789998985354985557e-04 -1.361000059181668043e-03 -2.659999943405617104e-04 -1.652999795732638033e-03 -1.223000104790554184e-03 2.024900001034594596e-02 -3.788996566876240597e-03 -4.227700024390988742e-02 4.270100006314423574e-02 -1.720999787947170368e-03 -1.322000109879471882e-03 2.030300001082018663e-02 -3.814000038425762254e-03 1.924999730938387879e-03 1.941400001912989282e-02 -3.499994160075356648e-05 7.030000175422386694e-04 2.021199999949098436e-02 6.340003248881420118e-04 -2.806999931675317750e-03 2.039799999930425739e-02 -4.789997362753129341e-04 -2.052000016586970083e-03 1.966200000469370268e-02 2.040001169454684984e-04 -1.899996366892950104e-05 2.092599999889292739e-02 -1.309999608871527908e-03 -3.727000079304855929e-03 1.979300001095382622e-02 7.070001710382375557e-04 -8.039999265818339493e-04 1.996999999690056080e-02 -1.307999738190206238e-03 -1.978000078618203251e-03 2.032900000919574818e-02 -1.473999828334634750e-03 -8.120000915274302794e-04 1.997400000894735198e-02 -4.742700004342290804e-02 2.613996441001373815e-03 2.794900025917912423e-02 1.425100097685280502e-02 -1.228199891351392133e-02 8.688999933604741460e-03 -1.279999815969005668e-03 -9.520000765335216459e-04 2.029600000801634607e-02 -3.294099875675949446e-02 -1.642300249112550736e-02 2.110001982341077914e-04 -1.528799811425422470e-02 -2.864400120701419972e-02 -5.083599988700063244e-02 -1.786999912704717586e-02 -1.384300138299926139e-02 -3.152199988753273674e-02 -3.000000176016646199e-03 8.779997532735271800e-04 -1.985799998431744817e-02 -3.120300123479815418e-02 1.634399764034475885e-02 2.360001559104134218e-04 1.243999948609071475e-03 -8.079999262740671052e-04 -2.038100000605960749e-02 -1.313999634317731960e-03 -6.313000119604398469e-03 -2.024899998644100196e-02 -2.005000049801035963e-03 -8.280001719827898400e-04 -2.036699998810561837e-02 -1.311000161961286929e-03 6.579998805455584921e-04 -2.032599999342073194e-02 3.760000894068269719e-04 -2.621999991268858955e-03 -1.972799999945640953e-02 -3.190001516120550521e-04 5.169999555138385990e-04 -2.038299999875558405e-02 4.899999077622261417e-04 -2.149999825750973552e-04 -1.965600000248996990e-02 -2.369999709120090467e-04 -1.877000038349400241e-03 -2.044799999681690475e-02 -3.769996994405683949e-03 -3.952000028210635174e-02 3.023000060285453792e-03 2.533999989922878365e-03 -1.331999828406375992e-03 -2.007600001265680972e-02 -3.800999935514237475e-03 -2.350000307963560995e-03 -2.051599997667167066e-02 -5.920999999963650652e-03 -1.462000467809261139e-03 -2.002499996585658040e-02
1.717499999988663928e-01 -1.098701085885033490e-05 -3.560009480241911931e-04 -3.364012991675106607e-03 1.717779997455683161e-01 -1.100015301620955084e-05 1.289999959747068446e-04 2.600000938372207604e-05 -3.730000007380321531e-04 -3.571999996325166214e-03 -3.100026991055087445e-05 2.410000197478889556e-04 -8.940001252605108860e-04 1.685999932794086638e-03 4.080000032506450841e-04 6.040003051035797068e-04 -4.043999954454161050e-03 -1.349999992945362381e-04 -1.242999809904909037e-03 -2.491000093700749141e-03 3.080000093493816802e-04 2.709999917182388460e-04 1.060000204478534272e-04 -4.800000160176174068e-05 9.999985021007275752e-06 1.720000003997030366e-04 -3.570000002270053217e-04 4.599999167688177053e-05 1.010000033551308317e-04 -1.240000003547998809e-04 1.799997484931430106e-05 3.370000014222751723e-04 6.099999956402122421e-05 2.139999905645068392e-04 1.160000160650095664e-04 -1.200000012971187468e-04 -2.420999909300859503e-03 -1.161000182577438984e-03 5.240000145232657797e-04 1.780000204662062803e-03 -2.701999865322196343e-03 5.599999287362148490e-05 1.599999847937865545e-04 2.150000122916260721e-04 1.909999989020646799e-04 -7.789998984543484084e-04 -1.362000059180668975e-03 -2.649999943395628106e-04 -1.645999795880026366e-03 -1.222000104274127740e-03 2.023600001030630841e-02 -3.786996571299210135e-03 -4.222100024379258493e-02 4.266700006307725529e-02 -1.718999788456150330e-03 -1.316000109738199976e-03 2.029300001080315205e-02 -3.809000038486480381e-03 1.924999731305551643e-03 1.940300001910229277e-02 -3.599994136999065192e-05 6.990000174536230423e-04 2.019899999950050193e-02 6.350003246706431657e-04 -2.804999931611673950e-03 2.038599999929674098e-02 -4.779997365518824756e-04 -2.049000016520329849e-03 1.965300000468519007e-02 2.030001169714200728e-04 -1.999996375354964821e-05 2.091699999889944789e-02 -1.310999608991317202e-03 -3.726000079388477708e-03 1.978500001095834585e-02 7.070001709830389799e-04 -8.039999265918227039e-04 1.995999999690055773e-02 -1.305999738380105935e-03 -1.976000078473934274e-03 2.032200000918270993e-02 -1.471999828308683022e-03 -8.130000913851596683e-04 1.996500000893731280e-02 -4.736400004381927792e-02 2.617996445749099128e-03 2.793200025882737469e-02 1.422400097531425003e-02 -1.226099891554694940e-02 8.697999933732799074e-03 -1.278999816083274807e-03 -9.510000764648834926e-04 2.028900000800982692e-02 -3.288899875862100197e-02 -1.639700248717375006e-02 2.300001979211045071e-04 -1.526399811713262389e-02 -2.860200120514513542e-02 -5.078199988717506386e-02 -1.785199912853053031e-02 -1.382200138161893653e-02 -3.150299988765307285e-02 -2.997000176020518138e-03 8.789997535134033571e-04 -1.984499998433500792e-02 -3.115300123310998578e-02 1.631999764410329776e-02 2.130001556583936998e-04 1.243999948728860636e-03 -8.089999262660761258e-04 -2.037300000605860723e-02 -1.311999634517023450e-03 -6.310000119448143721e-03 -2.024399998645504128e-02 -2.000000049913657450e-03 -8.260001715976464853e-04 -2.035999998813521616e-02 -1.312000161987238308e-03 6.589998804789182468e-04 -2.031699999341621266e-02 3.750000892516943676e-04 -2.618999991331503758e-03 -1.971499999945388812e-02 -3.170001513354855460e-04 5.139999556740890282e-04 -2.037399999876362763e-02 4.909999077898253997e-04 -2.149999824944727207e-04 -1.965100000249548826e-02 -2.369999710025511496e-04 -1.875000038338412670e-03 -2.043699999681890256e-02 -3.769996998854605215e-03 -3.946300028213132333e-02 2.998000060228517283e-03 2.530999989843376024e-03 -1.329999828620281226e-03 -2.006300001264224933e-02 -3.796999935604779535e-03 -2.348000307650051962e-03 -2.050499997669574456e-02 -5.913999999913971579e-03 -1.462000467270859350e-03 -2.001599996589521757e-02
1.714759999990010386e-01 -1.298703158453755478e-05 -3.590009465097530601e-04 -3.357012970893345685e-03 1.715029997460947309e-01 -1.400015278015750793e-05 1.299999960448172632e-04 2.500000945835346403e-05 -3.740000007425530837e-04 -3.560999996395276639e-03 -3.000026907761916509e-05 2.420000196861716657e-04 -8.920001247421387083e-04 1.678999932943349340e-03 4.060000032465974919e-04 6.010003042550872421e-04 -4.032999954684048614e-03 -1.379999992889642979e-04 -1.239999810602141058e-03 -2.482000093476854994e-03 3.050000093238322205e-04 2.689999918694993661e-04 1.040000202965929047e-04 -4.800000158872427732e-05 1.099998517226778748e-05 1.700000004753332995e-04 -3.570000002305274067e-04 4.399999159573166264e-05 1.020000032028714254e-04 -1.250000003447590546e-04 1.799997501161452803e-05 3.350000014242729288e-04 6.299999956601898309e-05 2.109999904077264972e-04 1.180000158371199135e-04 -1.210000012825569331e-04 -2.414999909712129984e-03 -1.156000182129650680e-03 5.180000144851522412e-04 1.775000204127131316e-03 -2.694999865701346552e-03 5.499999289422862701e-05 1.579999850852678361e-04 2.110000121383678450e-04 1.889999989170999134e-04 -7.779998986166487872e-04 -1.360000059107036637e-03 -2.669999943470803918e-04 -1.641999795891066049e-03 -1.222000103973604462e-03 2.023400001028422684e-02 -3.780996577583112857e-03 -4.214200024339474077e-02 4.261100006296522635e-02 -1.715999788575939527e-03 -1.315000109519300292e-03 2.028500001078559559e-02 -3.801000038189479482e-03 1.920999731909594620e-03 1.940200001906212945e-02 -3.499994131643981556e-05 6.980000175252578818e-04 2.019499999949598071e-02 6.330003244216730017e-04 -2.801999931766929568e-03 2.038199999930478262e-02 -4.779997368599233406e-04 -2.045000016521328519e-03 1.965200000468119226e-02 2.020001168571508316e-04 -1.899996383617204667e-05 2.090999999890396852e-02 -1.309999609478217737e-03 -3.720000079318840774e-03 1.977900001094683169e-02 7.080001710365898095e-04 -8.049999265201879728e-04 1.995599999689603998e-02 -1.300999738715746075e-03 -1.972000078101776577e-03 2.031600000915111809e-02 -1.471999828541093683e-03 -8.100000913861585793e-04 1.996400000893431767e-02 -4.727600004340026113e-02 2.610996452384584197e-03 2.791200025834861959e-02 1.420000097365755297e-02 -1.223799891734709232e-02 8.712999933842302883e-03 -1.273999816429954727e-03 -9.470000760947232211e-04 2.028100000797823307e-02 -3.282799876053993371e-02 -1.636900248252435089e-02 2.660001975564247928e-04 -1.523799812069556725e-02 -2.855000120311182443e-02 -5.071499988737052100e-02 -1.781799913001224159e-02 -1.380000137901454642e-02 -3.146999988786271935e-02 -2.990000175836138654e-03 8.769997540488083622e-04 -1.983899998437164622e-02 -3.110100123101219513e-02 1.628999764800510494e-02 1.820001554013275270e-04 1.239999948627278602e-03 -8.069999265596072271e-04 -2.036400000603852747e-02 -1.309999635596278793e-03 -6.295000119286894846e-03 -2.023399998648105907e-02 -1.999000050085349839e-03 -8.230001715120274005e-04 -2.034999998814373406e-02 -1.308000161699629082e-03 6.559998807924269414e-04 -2.030599999343529402e-02 3.740000890579226953e-04 -2.615999991401140364e-03 -1.970899999945136677e-02 -3.140001511290264912e-04 5.119999559109685060e-04 -2.036399999877818931e-02 4.889999078174246932e-04 -2.149999826407388308e-04 -1.964600000248445041e-02 -2.389999712664332135e-04 -1.871000038482681285e-03 -2.042999999681185605e-02 -3.763997004487658771e-03 -3.939100028171150375e-02 2.964000060123479167e-03 2.527999989730754776e-03 -1.327999828840179712e-03 -2.005600001262768800e-02 -3.788999935933251399e-03 -2.343000307036020337e-03 -2.049599997674490109e-02 -5.904999999956483253e-03 -1.461000466584193866e-03 -2.000999996594589325e-02
1.710389999991374088e-01 -1.398706462397249418e-05 -3.480009440965773390e-04 -3.340012938285664718e-03 1.710719997473824638e-01 -1.200015244347928964e-05 1.229999968933097017e-04 1.400000893193832033e-05 -3.710000006929265294e-04 -3.555999996574136807e-03 -2.800026870446226506e-05 2.370000196565746138e-04 -8.950001244506573155e-04 1.674999932714460937e-03 4.040000032671525612e-04 5.960003035374236702e-04 -4.022999955055206987e-03 -1.309999992713538114e-04 -1.233999810753401861e-03 -2.480000093023073619e-03 3.050000092887152916e-04 2.699999920853504362e-04 1.010000203702254330e-04 -5.000000159124750834e-05 1.499998481067605524e-05 1.750000007808509409e-04 -3.540000002576012173e-04 4.299999154218083982e-05 1.030000031312366672e-04 -1.210000003402380647e-04 1.699997508724478810e-05 3.340000013486426472e-04 6.299999957253770799e-05 2.109999907212872252e-04 1.140000158391176892e-04 -1.190000012785614368e-04 -2.407999909393049656e-03 -1.160000181597242242e-03 5.210000144505086937e-04 1.770000203586679938e-03 -2.687999866081495961e-03 5.299999291483576514e-05 1.529999849395272257e-04 2.130000117612154014e-04 1.899999989427014204e-04 -7.829998991885715178e-04 -1.352000059479194476e-03 -2.609999943274721786e-04 -1.648999796270865167e-03 -1.218000104517000422e-03 2.022000001031887262e-02 -3.764996586035988888e-03 -4.203600024226356729e-02 4.253200006277102485e-02 -1.706999788415286892e-03 -1.318000108850614664e-03 2.027300001073891259e-02 -3.797000037827887985e-03 1.915999732209119118e-03 1.939900001904504290e-02 -3.999994182541991413e-05 7.040000171371177699e-04 2.018499999951758536e-02 6.290003231989014544e-04 -2.786999932085432782e-03 2.036599999931187899e-02 -4.739997373263922834e-04 -2.040000016234789701e-03 1.963600000465412151e-02 2.080001168499832356e-04 -1.999996339737365592e-05 2.089499999887184725e-02 -1.297999610245559798e-03 -3.710000078413275195e-03 1.977700001087060247e-02 7.030001703393579191e-04 -7.959999269013358835e-04 1.995299999691464710e-02 -1.305999739457136761e-03 -1.963000078490915491e-03 2.030500000916972761e-02 -1.466999828489190527e-03 -8.120000910259869914e-04 1.994600000890871250e-02 -4.714500004232429625e-02 2.593996462254190543e-03 2.787400025764250056e-02 1.416700097238065247e-02 -1.221899891981392296e-02 8.741999934005479159e-03 -1.277999816225143396e-03 -9.500000764012397165e-04 2.027700000800330624e-02 -3.275499876384616038e-02 -1.632200247695839157e-02 3.110001971065281721e-04 -1.520599812522737022e-02 -2.848300120059476734e-02 -5.061799988761408325e-02 -1.776899913155302602e-02 -1.377700137527270406e-02 -3.143399988815616386e-02 -2.986000175122347118e-03 8.679997543573227505e-04 -1.983299998438473738e-02 -3.101900122764137541e-02 1.624199765415983848e-02 1.350001549966454301e-04 1.232999948455586669e-03 -8.039999270790303089e-04 -2.035400000600288625e-02 -1.310999636334374057e-03 -6.284000119345543520e-03 -2.021699998648652727e-02 -1.990000049738670229e-03 -8.270001708233641786e-04 -2.034199998818941521e-02 -1.303000161795691116e-03 6.579998811805669225e-04 -2.029599999346489228e-02 3.780000884473608443e-04 -2.607999991099618775e-03 -1.970999999948143400e-02 -3.210001517710598003e-04 5.209999553885488353e-04 -2.035699999874854282e-02 4.859999072896605899e-04 -2.069999828536453685e-04 -1.963200000247588076e-02 -2.349999715893859352e-04 -1.866000038170171488e-03 -2.041999999683893202e-02 -3.746997012678876787e-03 -3.928700028048472820e-02 2.905000059925758830e-03 2.521999989557414772e-03 -1.325999829297956926e-03 -2.006000001259656759e-02 -3.786999936435064568e-03 -2.336000306879765058e-03 -2.049099997676293028e-02 -5.896000000441736257e-03 -1.454000465895530485e-03 -2.000199996600256561e-02
1.704559999988569663e-01 -9.987108712417204284e-06 -3.440009408824971438e-04 -3.329012893824465080e-03 1.704849997482263679e-01 -1.519178572085173700e-10 1.279999960023061353e-04 2.600000931308620286e-05 -3.680000007325123041e-04 -3.538999996594568292e-03 -2.700026740875911940e-05 2.470000195617381750e-04 -8.880001234619442360e-04 1.661999933244871514e-03 4.050000032414989527e-04 5.900003019547082287e-04 -4.001999955507990446e-03 -1.299999992592110751e-04 -1.235999811504184375e-03 -2.470000093173334906e-03 3.060000092897662873e-04 2.579999916961594033e-04 1.060000194606645809e-04 -5.200000153000361897e-05 8.999985406326140735e-06 1.680000003390559225e-04 -3.420000002174899446e-04 4.499999193137182622e-05 9.800000328449494662e-05 -1.190000003462833919e-04 1.799997614054853757e-05 3.200000014232741224e-04 6.199999958100213136e-05 2.119999910718392208e-04 1.090000159097535831e-04 -1.240000012790868950e-04 -2.400999909927981069e-03 -1.153000181068829363e-03 5.200000144048775273e-04 1.760000202798905986e-03 -2.676999866829807805e-03 6.099999295904668165e-05 1.609999848583770830e-04 2.140000123652585813e-04 1.889999988975437251e-04 -7.789998994910925581e-04 -1.348000059176673567e-03 -2.609999943535470782e-04 -1.642999796385134293e-03 -1.217000104070211199e-03 2.021300001028475402e-02 -3.748996599240306780e-03 -4.186900024115736835e-02 4.242800006251589567e-02 -1.703999789761719659e-03 -1.301000108634711759e-03 2.026200001070536938e-02 -3.789000037938284726e-03 1.915999732794183667e-03 1.937900001900088459e-02 -4.299994140640520215e-05 6.970000168902494271e-04 2.016499999954113678e-02 6.350003236731147169e-04 -2.793999931641640271e-03 2.035599999928575099e-02 -4.699997373539915825e-04 -2.040000015937262941e-03 1.963100000463204042e-02 1.960001164701842666e-04 -1.599996431892103109e-05 2.088099999893408901e-02 -1.310999610949959435e-03 -3.702000079414448537e-03 1.975900001093437025e-02 7.000001705629532939e-04 -8.009999271561951814e-04 1.992499999693619905e-02 -1.288999739626604411e-03 -1.962000077222182410e-03 2.028800000907489062e-02 -1.459999828430120095e-03 -8.130000904995719497e-04 1.994300000887107294e-02 -4.698600004131293223e-02 2.577996474243441759e-03 2.783800025678082740e-02 1.410300096879620740e-02 -1.216999892463228525e-02 8.763999934309804618e-03 -1.275999816774410142e-03 -9.450000762809443282e-04 2.024600000798727414e-02 -3.262999876772817998e-02 -1.626600246744068154e-02 3.750001963606091498e-04 -1.515499813198062373e-02 -2.838400119660477311e-02 -5.048499988799447918e-02 -1.771499913520263592e-02 -1.372400137112374414e-02 -3.136899988850717913e-02 -2.981000175794204423e-03 8.789997547644413673e-04 -1.980399998442332332e-02 -3.090500122338671676e-02 1.618099766271676246e-02 7.000015442831336544e-05 1.237999949036324831e-03 -8.099999266779048159e-04 -2.033100000602448831e-02 -1.297999637500299279e-03 -6.268000118354359433e-03 -2.020899998657427199e-02 -1.992000050331024352e-03 -8.180001709586426839e-04 -2.032599998818736611e-02 -1.310000161825514760e-03 6.599998806731304304e-04 -2.027399999342824680e-02 3.660000883915856150e-04 -2.604999991976216650e-03 -1.967899999941819314e-02 -3.080001506112311745e-04 5.079999564037062038e-04 -2.032499999880731448e-02 4.909999081177213133e-04 -2.169999824625086461e-04 -1.961900000249349255e-02 -2.399999716412890374e-04 -1.864000038530342967e-03 -2.040199999681333032e-02 -3.748997025118077329e-03 -3.912800028071090203e-02 2.830000059777976890e-03 2.509999989184206505e-03 -1.317999830163567049e-03 -2.001800001253831868e-02 -3.761999936636580173e-03 -2.331000304957045032e-03 -2.045899997690592276e-02 -5.879000000261228216e-03 -1.455000464590837502e-03 -1.998299996609540635e-02
