-9.282740019860261267e-04 -1.631179483586500389e-01 3.592274856134148285e-03 5.189110261012635584e-04 2.030572107662084386e-06 2.185021103735029779e-03 4.138992731123744746e-04 -8.619654892303015795e-04 2.457029077380447867e-03 -2.620155482708656780e-03 4.505057415286665978e-03 3.904829436915573018e-03 3.604829195991341578e-03 3.667057645226406200e-03 4.265094804844903921e-03 -9.861403917425038204e-04 -8.669505838624955813e-04 3.430972138172273117e-03 -3.390098954766716018e-03 3.942038183514749543e-03 2.505806065241553224e-03 -1.851017732041835835e-04 -4.829645523865647725e-04 2.489999312187597940e-03 3.568876916194215019e-03 3.765041085383813522e-03 3.095091950561074199e-03 -1.612306147455664089e-05 4.804287199848255452e-05 3.022998665123559792e-03 2.387408173989734393e-05 -1.195618104743492807e-05 3.092001144559270408e-03 -1.612351099592505913e-05 -5.956986218119989495e-06 3.032999430713491113e-03 2.687512958416457187e-05 1.300434904999680228e-04 3.068999253500792179e-03 -2.212529408860080163e-05 5.043642301744002725e-06 3.076999030392083782e-03 -1.212557669212914811e-05 2.160437904062602094e-04 3.087996446082277857e-03 -2.126929207377153791e-06 -2.955806245558096701e-06 3.116999958194029835e-03 -2.312691273491652210e-05 1.804421019524413670e-05 3.116998805323123890e-03 1.787502694350236504e-05 -9.565024398602726300e-07 3.069000744300146369e-03 -1.504072742303128648e-03 6.550266834140454743e-04 1.798929467732502145e-03 1.787429681872897372e-05 1.042044036211216967e-03 3.106985956857525114e-03 1.477925667869431792e-03 6.040248872808736541e-04 1.837051620341144040e-03 3.387349847813444695e-05 -1.327956344700477508e-03 3.081020209714729809e-03 -4.771579007335956463e-04 -1.228944985163606552e-03 3.853997997042645993e-03 4.328426020496266378e-04 -1.209945867825568165e-03 3.842034783650811591e-03 -1.038145022614484370e-03 1.382051682540451484e-03 3.587938134752030432e-03 1.014853422122174260e-03 1.582050670496586630e-03 3.630018899067635925e-03 1.287491313879583338e-05 -2.172957051239936006e-03 3.030031334834395757e-03 -1.348417174565977490e-02 -1.779728266466639938e-02 -2.068229677979492587e-02 1.336381055232565424e-02 -1.749429744834777797e-02 -2.024120780265550174e-02 1.351321819855031304e-04 -2.050461835187451646e-04 -3.249991593222393334e-03 1.657109887218205296e-03 -1.061039846743262044e-03 -2.718917480415083097e-03 -2.262732300518105618e-04 -3.909456718445913220e-02 3.051554508910455515e-02 -1.417870227416491132e-03 -8.910443152779716058e-04 -3.204045106801200679e-03 -4.288719489966643132e-05 -3.835040287594565847e-03 -2.843947376629923744e-03 1.068128817212462200e-03 -1.484046091613089877e-03 -3.191935467362743903e-03 -1.016873159340632871e-03 -1.878043877736774786e-03 -3.151014784336629657e-03 -2.890771254989201507e-03 -9.180776281424400794e-04 -5.635104703555428481e-03 -1.864055078582135850e-06 -8.004735226245594110e-05 -3.339998944115766307e-03 2.896223571798672933e-03 -9.140803587615864683e-04 -5.507869108819129361e-03 1.892572633702992573e-05 4.055026950881062894e-03 1.901943281097215506e-03 -4.339067649217937818e-04 9.149681277770239322e-04 -2.272030643390909529e-03 4.220990010560516205e-04 8.949654442873890585e-04 -2.413995502655081130e-03 -3.187752424886205425e-05 -6.804263592351576058e-05 -3.009000336182158456e-03 5.912223448491640886e-05 -6.404262210979700754e-05 -3.002996687301338202e-03 -2.382029494529407481e-05 1.089374805255721365e-04 -4.411002518576186138e-03 -3.687455784201947782e-05 2.795636135831633157e-05 -3.080001900785705321e-03 4.512629801118343337e-05 2.895599941882810477e-05 -3.100998575834155741e-03 -8.741992200526585121e-07 1.795620557130456267e-05 -3.089000293049064347e-03 4.312461589624465156e-05 -3.904343189650987412e-05 -3.060997693225125937e-03 1.612750788185275409e-05 -3.804441737918526725e-05 -3.131998806799867786e-03 -4.987251084418920828e-05 -1.004435152646633108e-05 -3.131001891354348848e-03 -1.487855090327050213e-05 -7.904229478845740432e-05 -2.983999487995531337e-03 3.612469110012389405e-05 4.956559402232148877e-06 -3.061998602091746922e-03 -1.287640283690139276e-05 1.195698056881291685e-05 -3.035000696682894905e-03 -2.935938629014542083e-05 -1.367622674896825166e-02 -1.599480731166342748e-02 -4.750056414716779369e-04 -9.639979266442000316e-04 1.199943248481501732e-04 4.919827483940028773e-04 -9.169946289567471129e-04 4.060330352904318522e-04 8.389688360720331389e-03 7.331021317454068089e-04 7.667331248513016041e-03 -8.278314222894735813e-03 9.001161326207875743e-04 7.733650145617822387e-03 -1.060142535733840023e-04 4.140051586065966109e-04 3.579898136629099613e-04 -7.519958206854857009e-04 1.850999638714217891e-03 -6.705686505793439990e-05 -8.980178321350380723e-06 3.999311663438642235e-05 -4.860009331464139218e-04 7.690105532026883951e-04 1.827996221865511341e-03 -2.239946024088793010e-04 -1.444991681089054150e-03 1.000998508436390768e-03 -1.850730333991184944e-04 1.444021015956859291e-03 1.045991837061601912e-03 -4.959560285704934981e-04 -9.775575292330201182e-06 2.366092832251130706e-02 -5.056335862569858765e-03 6.411896360520500868e-03 1.382403483181779587e-02 2.811065106082088171e-03 -1.250449273609927840e-04 -1.314984618329511886e-03 1.078013552650462781e-03 -6.290115294110316599e-03 1.338404871890643694e-02 3.088554107788702308e-03 -1.540408348825050172e-04 3.596015318815519272e-03 1.071942744754970575e-03 1.900025758351596428e-03 1.797990033804417343e-03 -5.979481214456926425e-04 -1.748970832934276538e-03 1.830991714197048419e-03 -6.810971796204548772e-04 -9.976781526977814446e-07 -5.100082152399352636e-05 -5.799931760099758286e-05 1.099840404238128560e-05 -9.999455677930435817e-06 3.900058967074261981e-05 -1.700354891760645041e-05 9.600127512504407585e-05 8.899794659750390159e-05 6.799842671873660772e-05 1.900049968836514590e-05 3.900249960411571778e-05 -5.099921056528931645e-05 7.199978472522898358e-05 -1.800309754564381401e-05 -2.399753089674995667e-05 -1.900084605169399582e-05 -6.100070786621541720e-05 4.100080101208290967e-05 -1.210003440021421882e-04 -2.199661491527352348e-05 -4.900110963347634982e-05 -6.499959300395616671e-05 2.599892620875109419e-05 4.997256761713347172e-06 -1.229990823458823840e-04 6.500194740873814112e-05 -1.542526329823625496e-02 1.747745669083341710e-02 3.135912410766805714e-02 2.471056783508241046e-03 5.532647887975153904e-05 2.316409986063375226e-02 1.293979670325659526e-02 1.779241366811210381e-02 2.989227468997913625e-02 -9.061069281606248024e-04 4.095604910825905581e-02 3.413382439254676864e-03 1.665301392130121233e-03 -2.753758821359864051e-03 1.710310687059962698e-02 -7.728514082052251192e-04 1.017297317271868623e-03 2.092795412526285426e-02 -1.020796795702347357e-03 2.999279037587748546e-03 1.962491592737585291e-02 1.620152946939901846e-03 1.017293926537963383e-03 2.082105157035904486e-02 -5.899185105007250657e-04 3.311321162582065315e-03 2.261992905181633637e-02 -8.468626654271341316e-07 6.329486978161312798e-05 2.079799908746711445e-02 5.147085570923193265e-06 3.129696340057592201e-05 2.094599978534307169e-02 -2.848830634800796910e-06 -5.770447646160966341e-05 2.084400072149203073e-02 1.371351135094977072e-04 -2.069898585563304403e-05 2.123900589746674852e-02 -2.846261304012643651e-06 -5.270536966322160075e-05 2.078100065066177879e-02 -1.148442094976495208e-04 -3.270599085943652596e-05 2.073099580641766387e-02 1.914530941389556079e-05 -1.567024804306031693e-04 2.098600302081733704e-02 3.147141889947793154e-06 -1.047030917309028659e-04 2.094200163208091714e-02 -7.868929511984021217e-06 -8.769748289049046316e-05 2.133700094276238385e-02 4.411411252877700507e-04 -1.182701633994533283e-03 2.106903475132466605e-02 -4.498627831738756153e-04 -1.182699575276603644e-03 2.116499846895707887e-02 5.114685611802401857e-06 -5.226919069742144144e-04 2.173100763909429842e-02 -1.787040311479607725e-05 2.663031345489844906e-04 2.137999551658563424e-02 5.415241662617959308e-05 -3.887050456374504018e-04 2.080700773545464399e-02 -2.986819480158213848e-05 2.263023641702257974e-04 2.132499559509708903e-02 -2.082523821572084232e-05 2.732874137222094193e-04 2.027099529620966442e-02 -1.193837057415507354e-03 1.558292798052697027e-03 2.058592931193242367e-02 1.189158711150667055e-03 1.617292420835422708e-03 2.069102551313498420e-02 1.716906983769505668e-04 5.087595240693469590e-04 -1.695200023745751031e-02 -5.181263858114353634e-04 1.283987312563415473e-01 -1.898484152712658773e-02 3.396608659580351345e-04 1.412770025781381628e-03 -1.620200621374989769e-02 -1.253101707765474655e-03 -7.413119787029668999e-04 -2.207404053770461658e-02 6.633048044243021468e-03 -7.617372170117806852e-03 -2.588362192322933922e-02 -5.384990072149175612e-03 -7.424349432961819401e-03 -2.494411404360023093e-02 -5.369134653843136117e-03 -7.401299100140741258e-03 -2.139311372145617438e-02 5.790873178359582513e-03 -8.307310815623534031e-03 -2.160264643150880057e-02 -3.931453586936614879e-04 -3.742973542754618834e-04 -2.099501072201488336e-02 1.786539799462234836e-05 -1.041301603268956393e-03 -2.127198452891934308e-02 1.501788318757033350e-03 -4.612757707713508013e-04 -1.936793232404905238e-02 -1.521206811899169847e-03 -6.422751476245541682e-04 -1.949105285689245112e-02 -1.011103690291358321e-03 -1.400311657720968838e-03 -2.203802134014598568e-02 9.978974544445227881e-04 -1.496313656084428956e-03 -2.206793817086291284e-02 9.866126965261087483e-06 2.019698983976038996e-03 -2.123102825285824030e-02 4.998972987582468892e-04 1.214687527530896888e-03 -2.201199688581558650e-02 2.585892920002555659e-05 1.304701282500824724e-03 -2.106801746437526879e-02 -5.170971584211630145e-04 1.271686409829867262e-03 -2.214703910692819230e-02 7.785327771350276276e-05 -3.529715598901188653e-05 -2.095499634879300840e-02 -4.014846840836364648e-05 1.267035885667897705e-04 -2.090900345069388391e-02 -4.614968383494364221e-05 -2.129602391983839401e-05 -2.088200159673509609e-02 -2.014360153846877599e-05 4.970185740139018579e-05 -2.103000154447659184e-02 -1.213672134025166545e-05 -5.630057325490015960e-05 -2.120099971570789735e-02 4.861287242355410403e-06 -5.129989185436607260e-05 -2.115199909438779391e-02 6.845727178371337196e-06 -5.729447750192476397e-05 -2.076999892823461549e-02 -1.153199260200864221e-06 -1.942948823802098809e-04 -2.079899731162087456e-02 -1.314636901922969796e-05 -2.971981622530011619e-07 -2.096300055060474482e-02
-9.292738554569546141e-04 -1.629309483578858797e-01 3.592272164171528455e-03 5.149104990843813949e-04 5.030759550683995397e-06 2.198020898306250314e-03 4.188985800703738552e-04 -8.629652521226604655e-04 2.474029295146663605e-03 -2.614155809263927089e-03 4.504057524011153592e-03 3.912829695411006170e-03 3.602828946966518849e-03 3.661057731859775587e-03 4.271094808464204889e-03 -9.901408756878252344e-04 -8.609504105975713259e-04 3.442971890211132206e-03 -3.394099364322519016e-03 3.939038328424990069e-03 2.515805944882143312e-03 -1.911023863625278417e-04 -4.859643350213549754e-04 2.504999110381837726e-03 3.576876347662966225e-03 3.767041277608777598e-03 3.109092247959341793e-03 -1.412379053346820895e-05 5.304312563230273149e-05 3.040998675659711825e-03 2.587327045573226356e-05 -7.955899057923221653e-06 3.112001169271326646e-03 -2.012460575384684194e-05 4.339971373457232595e-08 3.059999182738406317e-03 2.887427444486553711e-05 1.300437866676783336e-04 3.089999334922972560e-03 -2.712607169828145108e-05 4.391559534073976948e-08 3.095998897658983149e-03 -1.012636135977698359e-05 2.020440582197911763e-04 3.106996725995006189e-03 4.872461541363849436e-06 -9.555990598023626349e-07 3.132000214870516580e-03 -2.412780780899388558e-05 1.904452288963747516e-05 3.138998750404057951e-03 1.187425560323901063e-05 2.043771635926129669e-06 3.088000457424086489e-03 -1.511073436902323494e-03 6.520269299178421598e-04 1.815929225204031402e-03 2.487344167528293296e-05 1.042044328463946580e-03 3.127986241883961346e-03 1.479924972479198814e-03 6.000251267378057043e-04 1.854051758478096742e-03 2.887272243560076986e-05 -1.330956071407082397e-03 3.100020048626102049e-03 -4.691585890766436485e-04 -1.223944750405558685e-03 3.870998251904834726e-03 4.318417892008027731e-04 -1.207945583486866445e-03 3.862034714555841880e-03 -1.042145756369860371e-03 1.381051940872853696e-03 3.605937986029656393e-03 1.018852532528964063e-03 1.590050979275293421e-03 3.652018948508481324e-03 1.387425847023230111e-05 -2.176956825177803548e-03 3.046031432251427185e-03 -1.347117194378974134e-02 -1.779028260395707980e-02 -2.067729634967285790e-02 1.335181068233385997e-02 -1.748429748148621829e-02 -2.024420843308056064e-02 1.321329588182455046e-04 -2.010464505482718401e-04 -3.268991772078338933e-03 1.658110295209349119e-03 -1.060039989304312549e-03 -2.728917453862699568e-03 -2.252714406614185743e-04 -3.904556779489226637e-02 3.047254443515496833e-02 -1.420869699610229726e-03 -8.930444972401213209e-04 -3.217045200596142102e-03 -4.888658799995729021e-05 -3.840040495563015830e-03 -2.858947550052268628e-03 1.072129588554384273e-03 -1.487046364122883869e-03 -3.210935261928386797e-03 -1.016872512508633667e-03 -1.884044104580895893e-03 -3.167014699255175578e-03 -2.885770601109187775e-03 -9.150778589024489811e-04 -5.651104542469588890e-03 -1.863198373794922563e-06 -7.804764999636018227e-05 -3.360998972451771476e-03 2.893224429289521695e-03 -9.110806541466030806e-04 -5.528869273495451604e-03 1.992650238288120151e-05 4.058026680719652689e-03 1.882943279302438586e-03 -4.389060765812340592e-04 9.099678906699875487e-04 -2.289030776090544318e-03 4.270998139015578696e-04 8.929651568167026486e-04 -2.433995270676706738e-03 -2.987663074276106703e-05 -7.104294940070363118e-05 -3.031000212186714220e-03 5.912296510931615501e-05 -6.704287730981112843e-05 -3.020996644751315022e-03 -2.281939673692276661e-05 1.119371678307755450e-04 -4.433002520368174888e-03 -2.987369879231761344e-05 3.295605814313655333e-05 -3.101001686609043424e-03 4.912707405454650421e-05 3.195572690842914191e-05 -3.119998455466379151e-03 -1.187318275707594679e-05 1.595585973957982005e-05 -3.114000712599659416e-03 4.512563078129219518e-05 -4.304378790698301925e-05 -3.085997555049130401e-03 2.112819151267758498e-05 -4.904466231557829022e-05 -3.148998447224411225e-03 -5.887162438112620791e-05 -2.204465638978918242e-05 -3.153002087688395842e-03 -7.877689502848165656e-06 -7.104259800393962238e-05 -3.004999316352159264e-03 3.212530896820305418e-05 1.395634986637902177e-05 -3.076998892561078492e-03 -1.787562913679417918e-05 1.195671510568179489e-05 -3.054000900269488155e-03 -2.836794388600247425e-05 -1.358022374406830934e-02 -1.578280863220494351e-02 -4.730089727464827781e-04 -9.539967656319806987e-04 2.019942644359906734e-04 4.989806536281475883e-04 -8.879938971952848698e-04 4.580329091329100486e-04 8.336686569830904087e-03 7.341027970670981279e-04 7.711329076089241084e-03 -8.249317041276056292e-03 8.891170881828881073e-04 7.802651482413760706e-03 -8.501653474141553622e-05 4.130059361203185036e-04 4.139906829264893787e-04 -7.409976006829485521e-04 1.814000239750190695e-03 -2.405589259129655921e-05 -1.998240466265964604e-05 4.993890851822150199e-06 -4.320008849042531558e-04 7.640091929640717601e-04 1.806996693649856253e-03 -1.909945083107788524e-04 -1.429988453185105637e-03 1.014997376644203577e-03 -2.640726210016020449e-04 1.434022766177700352e-03 1.044991235246463474e-03 -5.389564215612684724e-04 -1.077742661000895494e-05 2.348092891877984895e-02 -5.014333351332329707e-03 6.385901192167740305e-03 1.370203313667475720e-02 2.690065777139583753e-03 -1.220410964702259787e-04 -1.310985953391667885e-03 9.840136181893444946e-04 -6.260112177486244420e-03 1.325604757538362266e-02 3.009557144241397416e-03 -1.420384730837371266e-04 3.596014487107434057e-03 1.013943233459100582e-03 1.903025714493974214e-03 1.793990045633627817e-03 -5.969479425730149892e-04 -1.758970961357090397e-03 1.822991764561202694e-03 -6.780974734096471054e-04 -2.199753719197797302e-05 -7.900086178943296986e-05 -6.199977575777556346e-05 4.899887463875400833e-05 -3.299965556301005939e-05 2.700246316279997287e-05 -2.900189894255036121e-05 7.100070323390833907e-05 4.799781242949072163e-05 4.399844005939148862e-05 3.600051847855909829e-05 3.900128128170997517e-05 -3.599923014208617996e-05 9.899978715536010467e-05 -1.700286953342027720e-05 -1.099789191007785404e-05 -1.200072863119143572e-05 -5.200027774786155857e-05 4.200026693889242899e-05 -1.270001604731937580e-04 -8.996489139926381148e-06 -4.299970710770216383e-05 -4.200007974929411412e-05 -8.001155523095605733e-06 -3.002119098302001605e-06 -1.059992887505573588e-04 5.000138063389425409e-05 -1.524625145334669758e-02 1.741945241076670731e-02 3.106713221928212795e-02 2.416069275473841076e-03 9.532218353512651569e-05 2.285809705416086066e-02 1.281780666191641334e-02 1.771741027590753581e-02 2.964627078559623971e-02 -8.681051280057610307e-04 4.065504836964577151e-02 3.363388254200302442e-03 1.660309847156113058e-03 -2.824761780596956283e-03 1.689410767381086323e-02 -8.048425013097319563e-04 9.512942232194192835e-04 2.070795375813252320e-02 -9.847896820973985488e-04 3.035276542459864734e-03 1.945091688308876049e-02 1.586160604053170635e-03 1.019291287734102897e-03 2.063305015766934286e-02 -5.939118996419843078e-04 3.277318854736833379e-03 2.245692937112841667e-02 -2.784347656970580494e-05 1.929369999213453467e-05 2.071399861190381317e-02 2.715008400694097663e-05 1.229589701971902739e-05 2.087200095064809316e-02 4.155089505081997636e-06 -9.570585718490215292e-05 2.074700154538317368e-02 1.181370704762973214e-04 -1.769965151318595158e-05 2.119100508128190716e-02 1.615658054470251321e-05 -1.170636281216189642e-05 2.071200084313378972e-02 -1.278418617574881070e-04 1.293211181750205402e-06 2.067399479505563006e-02 -2.285229037242942363e-05 -1.597032840343886185e-04 2.092700135312972401e-02 4.115065717142084187e-05 -8.770434077687182175e-05 2.085600293853122691e-02 -1.486383313258889988e-05 -7.969924963474428307e-05 2.121200054441052182e-02 3.941442263791805644e-04 -1.174702674706968155e-03 2.099303272409320728e-02 -4.488611911440771262e-04 -1.177700128994122949e-03 2.112599843882536840e-02 5.311722358482117584e-05 -5.056928235830562141e-04 2.166900935273080933e-02 -2.486531222041536764e-05 2.673013678054362891e-04 2.125499521747811413e-02 2.715508936109920207e-05 -3.557059460565795898e-04 2.074200616818589610e-02 -8.648776318301251459e-07 2.503011930594933876e-04 2.124399643581074276e-02 -1.782180985689452900e-05 2.312862062648491756e-04 2.018599601391729559e-02 -1.175834081699803123e-03 1.510291734806748411e-03 2.051193072550917817e-02 1.185161596848611013e-03 1.610291417344642375e-03 2.062002544956192257e-02 2.206830083661356933e-04 5.167621653050524528e-04 -1.676299835573361041e-02 -4.841373620104127387e-04 1.276947348593062692e-01 -1.872883016171014714e-02 2.516513169815489531e-04 1.386773412291779492e-03 -1.596800942878047122e-02 -1.232109295963457196e-03 -7.593093580741340411e-04 -2.188803942753990775e-02 6.618037986207979222e-03 -7.617368656457409494e-03 -2.563662253427171842e-02 -5.390999829499312605e-03 -7.456346039767525191e-03 -2.470511383445908246e-02 -5.299142476953954371e-03 -7.303296404468051853e-03 -2.119911226059776124e-02 5.736862582441601584e-03 -8.162307044596178035e-03 -2.133965068645494664e-02 -4.231530384524984068e-04 -3.532946511843705682e-04 -2.080601224154914747e-02 -5.142574676616641408e-06 -1.082298820585815644e-03 -2.107698488439188958e-02 1.480781595917981435e-03 -4.662734149916925529e-04 -1.920293310845149620e-02 -1.475213938867897664e-03 -6.432727025280880750e-04 -1.931605096971821672e-02 -1.044111195410744354e-03 -1.364309008993582753e-03 -2.185302319450553588e-02 1.019889437930789240e-03 -1.437310866112810398e-03 -2.186993811167629170e-02 2.085652704933165267e-05 2.084702335494029602e-03 -2.099402872670381656e-02 4.378873691683134086e-04 1.170691021285367745e-03 -2.176899878691265430e-02 4.085092753003166568e-05 1.278704049606394812e-03 -2.087201648512285526e-02 -4.741080129239013644e-04 1.242690147457522825e-03 -2.188103694502372895e-02 5.584885013021713608e-05 -2.129559338481322152e-05 -2.084599744324174692e-02 -3.915123272487289983e-05 1.327045518732734614e-04 -2.084100349510282363e-02 -1.715253588494401889e-05 -2.329505418084986646e-05 -2.081200038753995910e-02 -1.492672368327743569e-07 4.270381245572823077e-05 -2.089100063094443890e-02 -2.014106906061583716e-05 -4.429904996803678551e-05 -2.109400021170733386e-02 9.857963800797216687e-06 -3.129873319214330102e-05 -2.106999917441503348e-02 2.842945627392370168e-06 -7.329351027824246225e-05 -2.070199886433702133e-02 4.843359027777626854e-06 -2.212936961406543823e-04 -2.071499668457424045e-02 -9.149423085548154627e-06 -2.961379595853833694e-07 -2.088800038779106000e-02