-2.003999908297705163e-02 -1.319000153020493706e-02 -1.459099987620691465e-02 1.249100073889242157e-02 -1.101199907230330371e-02 -1.702000005794888915e-02 1.307000001210739410e-03 -2.899990132905326483e-05 -1.780000071854836974e-04 -4.707999823862389806e-03 -2.158000353727877480e-03 2.342000028143055058e-03 -3.003200099158673600e-02 1.507499775555183608e-02 2.691000015071423612e-02 -3.098799577608314301e-02 -5.558200233996837825e-02 3.666000226568833995e-03 -4.233999830914787939e-03 -2.197000319689100013e-03 5.300000255655997481e-04 -2.112000042084936826e-03 6.589998416723160009e-04 1.405000010999675128e-03 -1.589000120115426854e-03 1.615999880204088126e-03 3.810000071568659654e-04 3.650001827028464315e-04 -2.350999971508945224e-03 8.870000003336113784e-04 -1.772999721684106935e-03 -3.662000133846712684e-03 2.460000134445894252e-04 -3.910000195477841443e-04 2.399999701758527310e-04 -2.529999980814668747e-04 2.200003320916368583e-04 -4.625999986577714052e-03 -3.219999996593565783e-03 1.260000075347176033e-03 -1.077999905824614160e-03 -1.120000005878229012e-03 -5.799996722861828878e-05 -4.020000039580356272e-04 4.290000007216999544e-04 -1.108999908503697455e-03 -1.240000084287487146e-03 -4.139999926398734201e-04 1.162730002045616468e-01 -8.029911802153158387e-04 2.605699935899194117e-02 -1.275500002851652666e-02 2.598999065745864756e-03 3.044400006780967685e-02 4.720001575423565278e-04 -6.229999443199843532e-04 2.000499999801692505e-02 -6.362999647836584984e-03 -3.409000464163514620e-03 1.709100003852800920e-02 -3.133000319671541776e-03 5.647999782501516609e-03 1.947300001165205505e-02 -2.161999767696302747e-03 -1.678000144440056724e-03 1.909400001361004351e-02 1.760001601136213585e-04 -6.369999664328482086e-04 2.027899999966478739e-02 -7.790000022890074868e-04 1.531999961636915748e-03 2.057600000276968780e-02 -2.019999825930118267e-04 1.191000004172815523e-03 1.947199999992534764e-02 3.398000213047130697e-03 -1.344999722863031519e-03 2.016799998258701765e-02 -1.449999770312303737e-03 -1.527000088998105038e-03 2.068900000952907450e-02 2.164000029327562639e-03 1.069000183601457460e-03 1.995999998698723063e-02 -2.175998971451063857e-03 -1.307100015733553798e-02 7.244000025067519680e-03 -2.795999952484994056e-03 9.279998098368490459e-04 2.132300001450656082e-02 -7.729999514310371619e-04 8.339999617410924536e-04 2.022600000343378543e-02 -1.499999083076217687e-04 2.190000082454343752e-04 1.961200000060922544e-02 -8.270008918478302662e-03 1.156329993432086561e-01 -3.136400006985388261e-02 4.114999968904829025e-03 -1.119999709736924825e-03 -2.097900002159546612e-02 1.352999828641687297e-03 8.610000831023525850e-04 -1.924700000832839722e-02 -1.109699943627880277e-02 -8.023000847061185700e-03 -7.800999930732177394e-03 8.784000215244017196e-03 -4.493999358218443881e-03 -2.258000004399745783e-02 -2.814999921521488344e-03 -2.541000233474034233e-03 -2.059799998192346493e-02 -3.749000161738343800e-03 6.659996963088219259e-04 -2.017599997997131245e-02 3.238999978574054039e-03 -1.331999777140735171e-03 -2.213200001654830676e-02 -1.310000791435216646e-04 -4.220000300049656463e-04 -2.011999999885537294e-02 -3.540000517300241666e-04 -7.860000468914884368e-04 -2.014099999726085347e-02 7.700000113761725331e-04 -1.644999962219697871e-03 -2.047800000260713640e-02 9.559998525712502717e-04 4.730000520972430823e-04 -2.022800000574944898e-02 -4.719996621617797991e-04 -5.748000053229751841e-03 -1.755199999165308819e-02 1.530999836283803177e-03 6.750000954018461809e-04 -2.041100000912514020e-02 -1.199000237437483065e-03 1.650999888948220806e-03 -2.039399999503083843e-02 -9.879997332785243110e-04 -4.806000092231994120e-03 -1.752899998974578183e-02
-2.002899908353793570e-02 -1.318200152936501411e-02 -1.458299987627562598e-02 1.248500073868760891e-02 -1.100899907275309196e-02 -1.701600005791876341e-02 1.303000001426590521e-03 -3.199990163357203980e-05 -1.800000071604076677e-04 -4.701999824094799454e-03 -2.155000353275094305e-03 2.341000028106939284e-03 -3.001600099081552439e-02 1.506399775675093186e-02 2.689900015063690503e-02 -3.097099577851434790e-02 -5.555000233868466475e-02 3.664000226443032450e-03 -4.228999831136159675e-03 -2.194000319309949779e-03 5.310000255350038039e-04 -2.111000042177126838e-03 6.599998417449496561e-04 1.402000010993156506e-03 -1.587000119823945773e-03 1.611999880353350793e-03 3.790000071498217469e-04 3.620001826272162097e-04 -2.349999971735836080e-03 8.870000003491720648e-04 -1.770999721992147806e-03 -3.658000133696450839e-03 2.450000134295542272e-04 -3.880000194721538683e-04 2.389999704027435056e-04 -2.529999980970275611e-04 2.170003316654545568e-04 -4.619999986799610409e-03 -3.214999996582999352e-03 1.260000075061214675e-03 -1.073999905821617978e-03 -1.117000005882224549e-03 -5.599996737435895946e-05 -4.000000038057762428e-04 4.300000007086625018e-04 -1.106999908492657626e-03 -1.240000084134228880e-03 -4.119999926509131517e-04 1.162390002045119580e-01 -8.029911827957344648e-04 2.604799935917961884e-02 -1.275500002851817465e-02 2.597999065731880150e-03 3.043000006781067593e-02 4.710001574816381461e-04 -6.229999444066022405e-04 1.999399999802244782e-02 -6.356999648054082949e-03 -3.407000463721719316e-03 1.707900003849289333e-02 -3.131000319138258024e-03 5.639999782639792091e-03 1.946000001164900628e-02 -2.162999767157499070e-03 -1.686000144527673465e-03 1.908200001362355194e-02 1.750001597172627969e-04 -6.329999665254594683e-04 2.026199999966631429e-02 -7.790000025175460290e-04 1.533999961622931540e-03 2.056200000276769274e-02 -2.019999826056992419e-04 1.190000004156833600e-03 1.945599999992634818e-02 3.399000213039962952e-03 -1.345999722802384202e-03 2.015299998258249931e-02 -1.447999770378542153e-03 -1.527000088858831029e-03 2.067700000951803660e-02 2.162000029423624421e-03 1.067000183440208142e-03 1.994999998700026922e-02 -2.176998971781184036e-03 -1.306700015741616393e-02 7.239000025069043838e-03 -2.791999952459042495e-03 9.269998101303801715e-04 2.131400001448547840e-02 -7.689999511837148282e-04 8.299999620336247393e-04 2.021600000341570308e-02 -1.539999083037496379e-04 2.180000079299279679e-04 1.959900000063230160e-02 -8.272008915689375852e-03 1.155969993430693982e-01 -3.135200006980688042e-02 4.112999969079817256e-03 -1.120999709870205713e-03 -2.096100002158342648e-02 1.354999828881265451e-03 8.590000832695950583e-04 -1.923100000833743994e-02 -1.109299943641902514e-02 -8.021000846756665137e-03 -7.798999930756255090e-03 8.776000215721526526e-03 -4.498999358805507061e-03 -2.256200004394830552e-02 -2.818999921309509570e-03 -2.543000233765567789e-03 -2.058699998189938637e-02 -3.750000161601994668e-03 6.649996962441793828e-04 -2.016499997996479276e-02 3.232999978516630860e-03 -1.329999777577535892e-03 -2.211500001651718617e-02 -1.300000792230240443e-04 -4.200000299163500136e-04 -2.010699999886289210e-02 -3.570000515660762285e-04 -7.870000471023972256e-04 -2.012499999724329594e-02 7.690000115125214487e-04 -1.645999962284340522e-03 -2.046700000260061672e-02 9.549998525673781278e-04 4.740000520345982304e-04 -2.021500000574492917e-02 -4.679996624902523568e-04 -5.743000052918240811e-03 -1.754299999168015822e-02 1.529999836414631768e-03 6.740000953362046540e-04 -2.040100000911862152e-02 -1.200000237441355101e-03 1.651999888885576171e-03 -2.038099999502631862e-02 -9.899997335479262649e-04 -4.802000092377261067e-03 -1.752299998973873979e-02
-2.000899908454156079e-02 -1.316800152784241944e-02 -1.457299987640000606e-02 1.247200073769502530e-02 -1.099499907372429759e-02 -1.700400005786098859e-02 1.302000001361999912e-03 -3.099990170720455572e-05 -1.780000071558866586e-04 -4.697999824175950155e-03 -2.154000352973572344e-03 2.340000028083861257e-03 -2.998200098971583877e-02 1.504799775930238358e-02 2.687900015046521332e-02 -3.093899578283631352e-02 -5.549300233626649342e-02 3.662000226209460776e-03 -4.226999831136159409e-03 -2.194000319158689264e-03 5.310000255239641321e-04 -2.109000042166087226e-03 6.599998418982079215e-04 1.404000010982116775e-03 -1.587000119661645479e-03 1.609999880355348712e-03 3.810000071518194922e-04 3.620001824759556952e-04 -2.347999971735835814e-03 8.870000003471743139e-04 -1.768999722289148896e-03 -3.654000133544191894e-03 2.460000134145190237e-04 -3.880000193910037752e-04 2.379999704037423839e-04 -2.519999980960286614e-04 2.170003313794930896e-04 -4.615999986796614010e-03 -3.211999996586994890e-03 1.260000074980064527e-03 -1.072999905822616612e-03 -1.118000005883223449e-03 -5.499996744998922630e-05 -3.990000037301459613e-04 4.300000007021437362e-04 -1.106999908719548398e-03 -1.237000084134228916e-03 -4.119999926539097781e-04 1.161750002049381364e-01 -8.089911876410653445e-04 2.604299935953888201e-02 -1.275100002792029820e-02 2.588999066019418045e-03 3.041500006779758805e-02 4.700001575241492010e-04 -6.239999444882257749e-04 1.998799999802896438e-02 -6.355999648297533909e-03 -3.404000463649086046e-03 1.707600003848437631e-02 -3.132000318863335710e-03 5.635999782559167684e-03 1.945500001165851797e-02 -2.163999766137314398e-03 -1.700000144610295649e-03 1.907500001364306058e-02 1.740001597487342072e-04 -6.339999666090807536e-04 2.025399999967283232e-02 -7.780000024860746514e-04 1.532999961690570878e-03 2.055400000276317099e-02 -1.999999824395269144e-04 1.187000004297106195e-03 1.944499999991830541e-02 3.398000212909134312e-03 -1.344999722888003298e-03 2.014299998258702040e-02 -1.447999770509371094e-03 -1.526000088868819868e-03 2.066700000951703781e-02 2.159000029427496359e-03 1.066000183200331965e-03 1.993699998701782897e-02 -2.177998972338195203e-03 -1.306000015749678687e-02 7.234000025067572129e-03 -2.784999952303910016e-03 9.239998106468065185e-04 2.130100001444983765e-02 -7.689999510821329994e-04 8.279999620246348115e-04 2.020700000341769942e-02 -1.639999079438056017e-04 2.120000071566444750e-04 1.958200000069349259e-02 -8.271008911009691128e-03 1.155359993431570031e-01 -3.134000006975146829e-02 4.108999969216165990e-03 -1.121999710161738920e-03 -2.095000002156034713e-02 1.350999828947503601e-03 8.590000829790605348e-04 -1.921900000831535879e-02 -1.108799943668290627e-02 -8.017000846371521300e-03 -7.791999930787850415e-03 8.767000216031214238e-03 -4.501999359471195450e-03 -2.254700004389563125e-02 -2.827999920492488533e-03 -2.553000234435252175e-03 -2.057599998183971823e-02 -3.750000161465646270e-03 6.639996962551669886e-04 -2.015399997996379297e-02 3.220999978145647376e-03 -1.323999778470115810e-03 -2.210000001645694503e-02 -1.300000790756356494e-04 -4.210000299033645485e-04 -2.009399999886189378e-02 -3.560000514242076452e-04 -7.880000470147803786e-04 -2.011299999724781504e-02 7.670000115677198674e-04 -1.645999962425612282e-03 -2.045700000258957735e-02 9.519998527793570352e-04 4.720000518186950943e-04 -2.020400000572637050e-02 -4.659996626564247226e-04 -5.740000052755993461e-03 -1.753199999169419501e-02 1.528999836480870100e-03 6.740000952725610107e-04 -2.038900000911310351e-02 -1.199000237310526460e-03 1.650999888971195050e-03 -2.037099999503083972e-02 -9.909997334761680432e-04 -4.802000092439906269e-03 -1.750999998973322078e-02
-1.997899908582010525e-02 -1.315000152555852869e-02 -1.455799987658358205e-02 1.245000073680014967e-02 -1.098199907537218169e-02 -1.698800005775253849e-02 1.303000001502220779e-03 -3.299990163357204378e-05 -1.800000071594087922e-04 -4.692999824565140775e-03 -2.149000352597418579e-03 2.338000028051267273e-03 -2.993600098760700740e-02 1.501799776275240979e-02 2.685000015024126621e-02 -3.088499578989752428e-02 -5.540000233218745490e-02 3.657000225818493339e-03 -4.221999831514310249e-03 -2.189000318780537531e-03 5.310000254913704127e-04 -2.109000042031386381e-03 6.579998418952112465e-04 1.401000010984114344e-03 -1.584000119812905812e-03 1.611999880582239315e-03 3.810000071332621794e-04 3.620001824814755853e-04 -2.347999971734837047e-03 8.880000003471743382e-04 -1.770999722143408320e-03 -3.656000133696451007e-03 2.450000134275564221e-04 -3.870000193799640249e-04 2.379999704813703920e-04 -2.499999981015485571e-04 2.140003309312314174e-04 -4.609999987022505435e-03 -3.210999996576428556e-03 1.259000074920993591e-03 -1.071999905895250436e-03 -1.115000005878702578e-03 -5.499996759572988461e-05 -3.970000037291470914e-04 4.310000007001460096e-04 -1.105999908638398335e-03 -1.238000084057599591e-03 -4.109999926584307684e-04 1.161150002049696067e-01 -8.099911921868717000e-04 2.603499935987107008e-02 -1.275300002784079609e-02 2.586999065855171993e-03 3.040200006781062364e-02 4.710001574264395703e-04 -6.229999444165909952e-04 1.998399999802244476e-02 -6.358999648297534307e-03 -3.404000463875976601e-03 1.707600003850093598e-02 -3.133000318664044305e-03 5.632999782478541675e-03 1.945000001166703393e-02 -2.165999764196879004e-03 -1.725000144752566458e-03 1.908400001367906856e-02 1.690001599535455952e-04 -6.369999669912273978e-04 2.024999999970342884e-02 -7.790000024546032140e-04 1.531999961606949484e-03 2.054600000276968555e-02 -2.009999824726460354e-04 1.187000004215482685e-03 1.943899999992382624e-02 3.398000213178536000e-03 -1.348999722893996431e-03 2.013699998259101467e-02 -1.449999770083188616e-03 -1.532000089025074797e-03 2.066200000953406779e-02 2.158000029551157724e-03 1.064000183119707390e-03 1.993199998702534573e-02 -2.180998972203493889e-03 -1.306200015772667616e-02 7.231000025086128935e-03 -2.774999951938446688e-03 9.179998113871270463e-04 2.128500001440062836e-02 -7.709999511152519549e-04 8.279999618673810442e-04 2.020100000342874014e-02 -1.749999076909632275e-04 2.080000063157217229e-04 1.957300000075820959e-02 -8.274008906898057750e-03 1.154819993429351127e-01 -3.133500006968097107e-02 4.104999969465136442e-03 -1.124999710460264412e-03 -2.094600002153526944e-02 1.349999829115323870e-03 8.570000829064269637e-04 -1.921600000830784097e-02 -1.109199943654820553e-02 -8.019000846677041064e-03 -7.794999930763771984e-03 8.761000216302263985e-03 -4.504999359916985954e-03 -2.253900004385951672e-02 -2.846999919564494226e-03 -2.566000235882215808e-03 -2.058599998172185377e-02 -3.755000161513677090e-03 6.649996958820101039e-04 -2.014899997993719466e-02 3.201999977564332946e-03 -1.314999779889110829e-03 -2.208200001636105581e-02 -1.300000793671169795e-04 -4.170000299013668630e-04 -2.009199999886588511e-02 -3.560000510996072184e-04 -7.920000470107848656e-04 -2.010899999724382117e-02 7.650000118978401899e-04 -1.649999962571878408e-03 -2.045200000257454617e-02 9.499998527313260714e-04 4.730000516724289813e-04 -2.019900000571633186e-02 -4.659996624240141149e-04 -5.743000052754994658e-03 -1.753099999169119988e-02 1.528999836567540137e-03 6.730000952745587373e-04 -2.038700000911210231e-02 -1.200000237271887362e-03 1.650999888902556813e-03 -2.036399999502531977e-02 -9.919997334005379187e-04 -4.803000092515536008e-03 -1.750999998972670169e-02
-1.992499908756182811e-02 -1.312500152144752477e-02 -1.453099987690662648e-02 1.240500073468744566e-02 -1.095099907873359202e-02 -1.694600005753511135e-02 1.292000001577851094e-03 -3.399990246550487090e-05 -1.800000070976915051e-04 -4.681999824295738494e-03 -2.153000351771479099e-03 2.332000027994544488e-03 -2.985000098511779790e-02 1.498099776920067301e-02 2.679400014980351519e-02 -3.081699580254985971e-02 -5.523300232704858592e-02 3.653000225276330573e-03 -4.207999832244661668e-03 -2.180000317730704240e-03 5.220000254051026124e-04 -2.101000042636428245e-03 6.659998425002533907e-04 1.401000010931964437e-03 -1.580000119034524015e-03 1.601999880888755820e-03 3.850000071211715251e-04 3.640001825184668231e-04 -2.348999971590568902e-03 8.810000003371333717e-04 -1.764999722456969417e-03 -3.652000133244666900e-03 2.430000133904418021e-04 -3.860000190018127685e-04 2.329999705570006633e-04 -2.499999981020740157e-04 2.130003311156110585e-04 -4.611999987092141838e-03 -3.204999996568910769e-03 1.257000074646072180e-03 -1.067999906041516367e-03 -1.110000005871658287e-03 -6.199996773595066034e-05 -3.950000042565611469e-04 4.330000007367872670e-04 -1.093999908632878370e-03 -1.238000083149037736e-03 -4.099999927246689916e-04 1.160280002049144249e-01 -8.099911987766928367e-04 2.602499936035129746e-02 -1.275100002758408277e-02 2.581999065984457234e-03 3.038000006780457868e-02 4.670001568363093690e-04 -6.159999447300997010e-04 1.997299999803753626e-02 -6.358999648963295157e-03 -3.396000463886964145e-03 1.706500003849294525e-02 -3.130000318411201889e-03 5.628999782696443230e-03 1.944100001165447247e-02 -2.175999761099910602e-03 -1.765000145495883429e-03 1.909700001377422074e-02 1.670001604868295213e-04 -6.449999671554733794e-04 2.023699999972245964e-02 -7.830000024396913030e-04 1.530999961293440801e-03 2.053500000279276719e-02 -1.999999824466944937e-04 1.186000004282123039e-03 1.942999999991930349e-02 3.391000213512528321e-03 -1.353999723431399465e-03 2.012899998263464885e-02 -1.444999769614495376e-03 -1.539000088657911094e-03 2.065100000951346215e-02 2.159000029971820060e-03 1.058000183189344249e-03 1.992599998702581851e-02 -2.185998971797743166e-03 -1.306700015809983233e-02 7.236000025118723318e-03 -2.759999950914389290e-03 9.029998125016034652e-04 2.126500001433281536e-02 -7.749999505985275851e-04 8.199999615488780301e-04 2.018500000345881118e-02 -1.889999070284981782e-04 1.980000052399172664e-04 1.955600000084547693e-02 -8.272008899765087922e-03 1.153889993431043565e-01 -3.131700006959910881e-02 4.093999970265598844e-03 -1.134999711284206264e-03 -2.093800002146456105e-02 1.340999829376981209e-03 8.550000822457321089e-04 -1.919600000825616784e-02 -1.108699943604474387e-02 -8.025000846289898418e-03 -7.785999930785379372e-03 8.756000215903681980e-03 -4.498999360285148991e-03 -2.252900004383790941e-02 -2.873999918354409790e-03 -2.582000237924232493e-03 -2.058599998155683647e-02 -3.759000161523069414e-03 6.659996955914756047e-04 -2.013699997991611271e-02 3.170999976038463893e-03 -1.292999782208676925e-03 -2.205700001621191397e-02 -1.280000796624704350e-04 -4.120000297351232034e-04 -2.007699999888192324e-02 -3.570000504393666088e-04 -8.000000470764264543e-04 -2.009899999723030808e-02 7.630000120932595598e-04 -1.651999962715147968e-03 -2.044400000256150693e-02 9.469998525320345688e-04 4.760000514505326056e-04 -2.019400000570276826e-02 -4.669996623964148513e-04 -5.743000052825629996e-03 -1.752599999168567846e-02 1.522999836860669228e-03 6.700000948327637347e-04 -2.037500000907598724e-02 -1.201000236870009095e-03 1.646999888844906650e-03 -2.034599999501580242e-02 -9.849997330980168279e-04 -4.807000091986124088e-03 -1.750999998976134411e-02
-1.985499909129753715e-02 -1.307400151613143449e-02 -1.450899987734395775e-02 1.238100073128350735e-02 -1.090299908050776194e-02 -1.690500005745057890e-02 1.300000002345193207e-03 -4.399990185846502710e-05 -1.780000071318615516e-04 -4.682999825998243083e-03 -2.131000351854101492e-03 2.325000027978088839e-03 -2.973700098106795212e-02 1.492299777768596285e-02 2.673300014923770881e-02 -3.070699581685501847e-02 -5.504400231873126520e-02 3.651000224480359380e-03 -4.189999832794505039e-03 -2.172000316359370443e-03 5.320000252977541552e-04 -2.113000043431369906e-03 6.759998415856979847e-04 1.394000010988214085e-03 -1.556000117725082378e-03 1.585999882721861797e-03 4.030000070046770412e-04 3.580001833906863457e-04 -2.358999972023374195e-03 9.020000003802413268e-04 -1.737999724632039540e-03 -3.622000131185668884e-03 2.600000132114394067e-04 -4.170000189703413013e-04 2.319999682044716601e-04 -2.579999979299596089e-04 1.850003295124638886e-04 -4.589999989198802720e-03 -3.193999996436330032e-03 1.247000072323613522e-03 -1.036999906793823444e-03 -1.106000005847424970e-03 -5.099997003632983692e-05 -3.640000034166373730e-04 4.410000006451036394e-04 -1.095999906740474433e-03 -1.262000083286314144e-03 -3.959999926896562395e-04 1.159000002049199313e-01 -8.099912084563669996e-04 2.602599936105784093e-02 -1.274000002667816447e-02 2.568999066802406250e-03 3.036600006775684590e-02 4.510001568677808213e-04 -6.169999459481748452e-04 1.996499999812685264e-02 -6.350999648498473205e-03 -3.402000463279924482e-03 1.706700003845477986e-02 -3.123000316260435717e-03 5.600999783231848037e-03 1.944700001164379952e-02 -2.184999756685755690e-03 -1.823000146171561368e-03 1.910200001388183758e-02 1.690001607098481678e-04 -6.469999669912274241e-04 2.024999999971341738e-02 -7.950000019284869093e-04 1.522999960368896961e-03 2.051800000286699635e-02 -1.959999823688397900e-04 1.183000004557674574e-03 1.940299999990022228e-02 3.392000212645828513e-03 -1.343999723375746691e-03 2.010899998261913776e-02 -1.437999768837761169e-03 -1.550000088138487990e-03 2.064100000948581107e-02 2.132000031143265265e-03 1.042000181140335111e-03 1.991899998719083922e-02 -2.190998973878398922e-03 -1.304000015848497465e-02 7.229000025119352961e-03 -2.733999950851446602e-03 9.009998144520082065e-04 2.124900001419129797e-02 -7.819999513989891234e-04 8.299999610114752518e-04 2.017700000348746081e-02 -2.179999073249225760e-04 1.990000030066847302e-04 1.951600000100454924e-02 -8.272008891270771561e-03 1.152779993431223282e-01 -3.129900006948823504e-02 4.081999970130895973e-03 -1.132999712188772785e-03 -2.093500002140032124e-02 1.327999830194002582e-03 8.450000812735265852e-04 -1.918500000817442014e-02 -1.108099943743204134e-02 -8.006000845827126317e-03 -7.776999930837476260e-03 8.748000216628510836e-03 -4.507999360882199505e-03 -2.252100004378475989e-02 -2.904999916041343597e-03 -2.612000240260779760e-03 -2.057799998135575320e-02 -3.786000160846268899e-03 6.579996935624439535e-04 -2.012399997975908642e-02 3.147999974829450518e-03 -1.272999783893234748e-03 -2.200200001610493755e-02 -1.240000779362386855e-04 -4.330000294076302020e-04 -2.005199999888302581e-02 -3.480000482599300169e-04 -8.240000463298280745e-04 -2.003299999725601313e-02 7.480000127810993880e-04 -1.659999963834618564e-03 -2.042900000247071732e-02 9.369998530608696563e-04 4.720000507351839380e-04 -2.015300000564357666e-02 -4.569996633188898121e-04 -5.730000052058340128e-03 -1.751499999175386291e-02 1.533999835648360704e-03 6.880000956916662060e-04 -2.034800000915468546e-02 -1.209000235783586020e-03 1.632999888244858738e-03 -2.034099999495765990e-02 -9.849997329710602229e-04 -4.807000091963149410e-03 -1.748699998976134193e-02
