4.770018942371617591e-04 -2.371499994570777994e-02 1.823700002105538287e-02 -6.199999683778175340e-05 -5.400000485588825214e-05 -1.669999996038296194e-04 2.489999621907198601e-04 5.940000201194847642e-04 1.288999998032223362e-03 -6.719999737647843569e-04 -3.890000513998839921e-04 -5.769999959020942135e-04 -2.029900082718289964e-02 1.226799848299488585e-02 1.823400009979333006e-02 2.010799921488594377e-02 1.160600153753933717e-02 1.678499987741378582e-02 8.200189449857334578e-05 -2.368699997515121350e-02 1.866800002320775920e-02 1.060000252407331298e-04 -3.459999921510030019e-04 -1.680000002394934201e-04 2.450000130471249502e-04 -4.799997976650275728e-05 1.705999998695581455e-03 -7.799999900345989500e-05 -2.500000606097807900e-05 -1.619999995444793765e-04 -2.047100079797001260e-02 1.191399847042798679e-02 1.867600010109634820e-02 2.029699920945843977e-02 1.171900155239781992e-02 1.734999987625766155e-02 7.999999135228122145e-05 2.390000077565016673e-04 1.707999999319680150e-03 -4.749999795113663686e-04 -2.720000359393547344e-04 -1.499999710637424525e-05 6.400000131340409992e-04 -7.899995030109154145e-05 1.296999996546203699e-03 -2.450000209953048249e-04 2.659999813117647021e-04 -1.589999989133365418e-04 3.829994115689127092e-04 2.189999254807440917e-04 -1.036020000023328558e-01 1.773000284310857679e-03 -2.304999846004924819e-03 1.992499999251570383e-02 1.107000352620882708e-03 -3.261999897110845915e-03 1.918799999714785459e-02 -3.259999937105192893e-03 6.139997732301129144e-04 1.980700001738142091e-02 -1.764000024276154164e-03 1.721999885762661451e-03 1.919600000801695988e-02 -1.108000092700448490e-03 2.679999936105287653e-03 1.992600000343900876e-02 -3.500057002862960135e-05 -2.600010615567708498e-05 -1.036249999997808230e-01 2.878000081881279450e-03 3.650002374766036302e-04 1.983499998374926507e-02 4.830000841550549716e-04 2.810000556039667975e-04 1.909599999705322362e-02 1.900014200025751780e-05 -4.409999789021298985e-04 1.968300000033562647e-02 -2.268000090026445984e-03 2.590999847640014682e-03 1.919100000993094468e-02 1.760999934942732029e-03 2.308000152999598389e-03 1.983699998797412711e-02 6.140002864996073123e-04 -2.386999934386576250e-03 1.919799999899512652e-02 -3.739999098119877060e-04 2.439999913741779602e-04 1.968200000182070142e-02 8.730000665481157289e-04 5.130000850887789059e-04 1.908499999466874500e-02 -1.095999654312625844e-03 -3.125000063104000931e-03 1.980900000917125078e-02 1.279400061897529271e-02 -7.871999028113266239e-03 4.277999937242124399e-03 4.179996995611895286e-04 2.443000010680976362e-03 -2.095600000474755545e-02 -3.780000940551220072e-04 -2.560000491121601821e-04 -2.054699999765778259e-02 -1.282999941550931264e-02 -7.411000965994066041e-03 4.347000078222419163e-03 -4.180011120168871243e-04 1.501599997266569661e-02 4.283999987308170256e-03 -1.476299933421089741e-02 -8.522001112680796520e-03 3.853000090002051906e-03 1.284500058992025899e-02 -7.448999023724721391e-03 4.809999936538087231e-03 2.357999953911259824e-03 -9.199998425953151470e-04 -2.095500001209685270e-02 -3.820001281978169065e-04 2.349999511267086469e-04 -2.000499999812615018e-02 2.327999949104043488e-03 -8.559998448582297912e-04 -2.094900001199518497e-02 -3.000109677467252398e-05 1.485300000253764532e-02 4.811999985329283407e-03 -1.907000029933429057e-03 -1.095000164629957723e-03 -2.042599998837986430e-02 4.999923365458199222e-06 -4.470000196073763469e-04 -2.000799999958110392e-02 2.399988888465153465e-05 1.299998188553435442e-05 -1.995200000014546449e-02 -4.080000980414461064e-04 -2.030000513770725736e-04 -2.054299999754512565e-02 3.809996951155639341e-04 2.502000007885653386e-03 -2.095300000460225201e-02
4.750018921824573762e-04 -2.368899994587502639e-02 1.822100002104045519e-02 -6.199999659433141973e-05 -5.700000485289162414e-05 -1.639999996008330014e-04 2.489999623419803746e-04 5.920000201194847156e-04 1.288999998034221113e-03 -6.679999739861553583e-04 -3.860000510963640689e-04 -5.759999959271702675e-04 -2.027700082628250064e-02 1.225499848464376915e-02 1.821900009968487749e-02 2.008299921563507645e-02 1.159500153563359538e-02 1.676999987756276969e-02 8.600189222801788683e-05 -2.365799997486267917e-02 1.865400002315671310e-02 1.040000251871823030e-04 -3.449999922982679903e-04 -1.640000002294525808e-04 2.470000129549351255e-04 -4.699997961823887193e-05 1.702999998683542944e-03 -7.999999901449961540e-05 -2.500000621423635123e-05 -1.639999995334396449e-04 -2.044700079732410594e-02 1.190399847222313456e-02 1.865600010097385672e-02 2.027399921044550912e-02 1.170500155064533969e-02 1.733699987639860177e-02 8.199999140031219880e-05 2.380000079027678073e-04 1.702999999309639341e-03 -4.739999793656257199e-04 -2.740000358647233470e-04 -1.599999710989634605e-05 6.380000132466624512e-04 -8.099995045934420572e-05 1.289999996559241168e-03 -2.470000207904934995e-04 2.629999811565086670e-04 -1.629999988993002054e-04 3.809994119939415962e-04 2.189999254063970961e-04 -1.035250000023218292e-01 1.767000283757718618e-03 -2.298999846476685541e-03 1.990699999254283425e-02 1.107000351916483279e-03 -3.253999897128825262e-03 1.916999999713986380e-02 -3.248999936924108854e-03 6.099997740400704953e-04 1.978500001732469774e-02 -1.759000024321960825e-03 1.720999886118837561e-03 1.917400000799035845e-02 -1.106000092805325703e-03 2.679999936237569859e-03 1.990700000342797080e-02 -3.600056986748277973e-05 -2.200010614740169270e-05 -1.035409999997793096e-01 2.873000081440762240e-03 3.690002370734803919e-04 1.980999998377287047e-02 4.840000841848786871e-04 2.790000556576217460e-04 1.907399999704970442e-02 2.000014194341124334e-05 -4.419999788504727308e-04 1.965900000033110606e-02 -2.265000089758691885e-03 2.585999847846927931e-03 1.917100000991937836e-02 1.756999935112776683e-03 2.304000152673104252e-03 1.981299998800020376e-02 6.120002862158702541e-04 -2.384999934561809944e-03 1.917399999900416818e-02 -3.719999094851628271e-04 2.379999915024643288e-04 1.965900000181565466e-02 8.740000670631923414e-04 5.040000851344430058e-04 1.905499999467221220e-02 -1.096999654812214195e-03 -3.120000063201606652e-03 1.978700000917177348e-02 1.278000061844036112e-02 -7.864999029173088546e-03 4.276999937312410925e-03 4.199997004184972374e-04 2.434000010864200998e-03 -2.092400000474960511e-02 -3.790000939706763975e-04 -2.550000491588230267e-04 -2.051799999765326413e-02 -1.281899941637436487e-02 -7.400000965168127172e-03 4.341000078150713572e-03 -4.220011109210721595e-04 1.500099997235618612e-02 4.276999987345233428e-03 -1.474799933481042019e-02 -8.514001111545344350e-03 3.854000089911262684e-03 1.283300058927657784e-02 -7.440999024639276087e-03 4.802999936596334847e-03 2.348999953763294957e-03 -9.159998432480188522e-04 -2.092700001205117025e-02 -3.860001277203081293e-04 2.299999508421674173e-04 -1.998699999809907743e-02 2.317999948998589188e-03 -8.529998455925570308e-04 -2.092700001194298595e-02 -2.800109553311699227e-05 1.483600000268091475e-02 4.803999985335224640e-03 -1.896000029860022990e-03 -1.094000163771055014e-03 -2.039899998844158305e-02 5.999923627115820092e-06 -4.490000195117685206e-04 -1.998799999958462276e-02 2.599988880127698847e-05 1.599998206276565983e-05 -1.992600000015949668e-02 -4.110000981413802377e-04 -2.000000515809891640e-04 -2.051999999753156487e-02 3.809996959287127987e-04 2.493000007909626503e-03 -2.092900000459326296e-02
4.740018910204042051e-04 -2.367399994595564827e-02 1.821600002103098900e-02 -6.199999651318131302e-05 -5.800000485189273910e-05 -1.629999995998341288e-04 2.499999622183191723e-04 5.940000202001093988e-04 1.293999998026703485e-03 -6.689999739751156024e-04 -3.860000511699965752e-04 -5.739999959216503288e-04 -2.026600082576964987e-02 1.224799848547270496e-02 1.821600009963115011e-02 2.007099921615344840e-02 1.158800153472403470e-02 1.676799987763600078e-02 8.600189130941508721e-05 -2.364599997486467944e-02 1.865200002314472416e-02 1.050000253494825408e-04 -3.469999922206399765e-04 -1.620000002329746985e-04 2.470000130526448347e-04 -4.799997961424336729e-05 1.706999998684541808e-03 -8.099999908461002042e-05 -2.400000628886773583e-05 -1.629999995289186873e-04 -2.043500079681677406e-02 1.189699847312670165e-02 1.865200010091461191e-02 2.026299921088273170e-02 1.169900154981040781e-02 1.733399987646531276e-02 8.199999142239162368e-05 2.380000079067633092e-04 1.706999999309639221e-03 -4.749999793545860182e-04 -2.740000359383558534e-04 -1.399999710437649204e-05 6.390000131931116703e-04 -7.999995037971843585e-05 1.293999996552722392e-03 -2.480000208606038909e-04 2.639999810818773095e-04 -1.619999988947792477e-04 3.819994119679900489e-04 2.199999254910172297e-04 -1.035160000023283289e-01 1.769000283611978043e-03 -2.296999846324426428e-03 1.990799999252979360e-02 1.105000352030752718e-03 -3.254999897273093672e-03 1.917699999715190284e-02 -3.249999937117879767e-03 6.129997739704334554e-04 1.979100001732721908e-02 -1.760000024207691686e-03 1.719999886050199191e-03 1.918100000799687760e-02 -1.104000092718655616e-03 2.678999936390827775e-03 1.990900000341792875e-02 -3.800056983988349982e-05 -2.200010629366782314e-05 -1.035359999997682717e-01 2.875000081409291152e-03 3.700002372327319345e-04 1.981799998376082908e-02 4.840000842124779750e-04 2.790000556626161233e-04 1.907899999704970248e-02 2.100014210019160790e-05 -4.439999787738435383e-04 1.966000000032758557e-02 -2.266000089574311729e-03 2.583999847777291095e-03 1.917700000992689571e-02 1.757999935145895722e-03 2.304000152754727328e-03 1.981899998799468293e-02 6.090002862545091950e-04 -2.384999934781708263e-03 1.918099999902072791e-02 -3.739999095552732429e-04 2.389999913522026869e-04 1.966000000182569624e-02 8.760000670096415847e-04 5.050000852896990465e-04 1.905899999466017375e-02 -1.093999654638874155e-03 -3.122000062970720427e-03 1.979100000915721275e-02 1.278100061845140190e-02 -7.864999029095461405e-03 4.278999937306890433e-03 4.199997008076881955e-04 2.429000010866198735e-03 -2.092200000474461058e-02 -3.790000940463066547e-04 -2.540000491588230024e-04 -2.051799999765426333e-02 -1.281699941636884471e-02 -7.400000965015867890e-03 4.342000078139673924e-03 -4.210011110612929780e-04 1.500299997243381353e-02 4.278999987337715402e-03 -1.474299933493960005e-02 -8.512001111163196646e-03 3.858000089881665796e-03 1.283500058944439526e-02 -7.442999024485018669e-03 4.805999936587292999e-03 2.343999953628594316e-03 -9.139998436231735720e-04 -2.092400001202556967e-02 -3.850001277092683790e-04 2.299999509197954255e-04 -1.998499999810459532e-02 2.312999948799297854e-03 -8.499998459657138669e-04 -2.092200001191837910e-02 -2.800109559770753710e-05 1.483700000268291241e-02 4.805999985334225705e-03 -1.891000030000243928e-03 -1.092000163390906145e-03 -2.039699998847117890e-02 5.999923568045128944e-06 -4.480000195087718699e-04 -1.998499999958562243e-02 2.599988889346681439e-05 1.499998206576229578e-05 -1.992300000015849795e-02 -4.100000981248206515e-04 -2.000000515023622803e-04 -2.051699999753708523e-02 3.799996963344634570e-04 2.488000007838990935e-03 -2.092400000458275247e-02
4.720018867983739332e-04 -2.361999994613188034e-02 1.819100002098808858e-02 -6.099999643755105177e-05 -5.900000477626247226e-05 -1.629999996043551163e-04 2.479999625042806450e-04 5.900000200458522691e-04 1.290999998041738803e-03 -6.669999740507458110e-04 -3.850000510187360364e-04 -5.739999959336888760e-04 -2.022000082370332963e-02 1.221899848892872391e-02 1.819300009940620633e-02 2.002599921808507002e-02 1.156100153130069745e-02 1.674799987791136119e-02 8.700188694164411474e-05 -2.358999997481302235e-02 1.862800002308326666e-02 1.050000251927021632e-04 -3.449999922216388576e-04 -1.630000002349724466e-04 2.470000128903445942e-04 -4.599997961624113058e-05 1.704999998682544008e-03 -8.199999916024027489e-05 -2.300000636449799250e-05 -1.629999995243976998e-04 -2.038700079497733977e-02 1.187099847673397934e-02 1.862900010067563075e-02 2.021499921287894103e-02 1.167100154615818147e-02 1.731199987675823351e-02 8.299999156813227242e-05 2.360000079813946695e-04 1.705999999306117166e-03 -4.729999793601058597e-04 -2.740000357880942143e-04 -1.499999711541620338e-05 6.350000131820720097e-04 -7.999995068423721583e-05 1.291999996574801904e-03 -2.470000207093433521e-04 2.619999811575075724e-04 -1.619999988983013327e-04 3.799994123400448178e-04 2.179999253797117935e-04 -1.034760000023152993e-01 1.767000283351968098e-03 -2.293999846481680448e-03 1.990199999253783672e-02 1.104000351765222800e-03 -3.251999897355715985e-03 1.916999999715442507e-02 -3.245999937064329623e-03 6.119997742689589583e-04 1.978700001730613819e-02 -1.760000023949329561e-03 1.715999886042208307e-03 1.917300000800087334e-02 -1.103000092606034200e-03 2.676999936459466180e-03 1.990200000341440720e-02 -3.700056960252971229e-05 -2.200010617508586005e-05 -1.034929999997737937e-01 2.871000081376171714e-03 3.700002369242176526e-04 1.981199998378290958e-02 4.840000841793588512e-04 2.790000556566228705e-04 1.907299999704970342e-02 2.000014199696207912e-05 -4.429999788544682028e-04 1.965500000033210473e-02 -2.264000089456170723e-03 2.581999847922558308e-03 1.917100000991785527e-02 1.755999935339667322e-03 2.301000152597473813e-03 1.981299998800872125e-02 6.070002859779397974e-04 -2.381999934941959017e-03 1.917199999902877150e-02 -3.729999095072422492e-04 2.379999914228385696e-04 1.965500000182117402e-02 8.760000669174517656e-04 5.060000852867024444e-04 1.905599999465917502e-02 -1.091999654968994586e-03 -3.118000062824454084e-03 1.978600000914218157e-02 1.277600061826702181e-02 -7.862999029479605245e-03 4.272999937332492421e-03 4.209997021817202386e-04 2.412000010957811129e-03 -2.090600000473314887e-02 -3.770000938840064740e-04 -2.560000490055647313e-04 -2.051599999766330271e-02 -1.281499941663989499e-02 -7.397000964872597548e-03 4.334000078125637215e-03 -4.230011106351106082e-04 1.499699997227755752e-02 4.273999987354747988e-03 -1.472599933566830395e-02 -8.502001109872486459e-03 3.863000089777839791e-03 1.282900058902760633e-02 -7.437999024945793521e-03 4.798999936615418009e-03 2.331999953246570619e-03 -9.079998445177512407e-04 -2.091100001196532360e-02 -3.850001279195995889e-04 2.329999509227920435e-04 -1.998199999810759339e-02 2.298999948201423116e-03 -8.409998470095544432e-04 -2.090700001185009232e-02 -2.700109518256498306e-05 1.483100000275155116e-02 4.798999985334699223e-03 -1.879000030598118468e-03 -1.083000162468359924e-03 -2.038199998854640926e-02 7.999923671274656627e-06 -4.490000193525170023e-04 -1.997999999959566494e-02 2.599988884543583145e-05 1.599998207075667707e-05 -1.991800000015949909e-02 -4.100000982650414401e-04 -1.980000515003645350e-04 -2.051499999753908163e-02 3.789996975406753751e-04 2.473000007776345478e-03 -2.091100000456224545e-02
4.730018821501613701e-04 -2.355999994607622938e-02 1.817100002092263827e-02 -6.399999659433140058e-05 -5.700000500415213867e-05 -1.639999995897933026e-04 2.499999623585399608e-04 5.920000201981115992e-04 1.291999998028701187e-03 -6.639999743367073137e-04 -3.810000507888486494e-04 -5.709999959542439753e-04 -2.017100082149679216e-02 1.218799849260963387e-02 1.816800009916669928e-02 1.998099922007576246e-02 1.153300152787436160e-02 1.672499987818772474e-02 8.600188194675169198e-05 -2.352599997491661848e-02 1.860000002302485828e-02 1.000000254361525245e-04 -3.479999925967935362e-04 -1.600000002043765407e-04 2.480000123868843893e-04 -3.999997954960077604e-05 1.695999998671030972e-03 -7.899999908461001247e-05 -2.400000613760721791e-05 -1.629999995399583862e-04 -2.033800079319311033e-02 1.184499848040690070e-02 1.859600010043113011e-02 2.016799921450803876e-02 1.164800154258358207e-02 1.729199987704064037e-02 8.499999176742376429e-05 2.330000081276608151e-04 1.700999999298074107e-03 -4.709999794522956845e-04 -2.730000356398303561e-04 -1.799999712745479135e-05 6.280000133002132303e-04 -8.199995121964227742e-05 1.285999996615438739e-03 -2.430000206983036644e-04 2.619999814620263523e-04 -1.599999989203807632e-04 3.849994126193329253e-04 2.199999258357754686e-04 -1.033980000023449058e-01 1.767000282676815456e-03 -2.284999846480681787e-03 1.990299999252884838e-02 1.095000351435102643e-03 -3.247999898041382689e-03 1.916499999720010922e-02 -3.243999937173078739e-03 6.129997744142262443e-04 1.978100001729410015e-02 -1.755000023766597464e-03 1.712999886412368408e-03 1.916500000797627390e-02 -1.098000092325592718e-03 2.672999936833621651e-03 1.989800000339080402e-02 -4.000056905771174254e-05 -2.300010631707209623e-05 -1.034079999997562366e-01 2.866000081245342977e-03 3.710002365360775818e-04 1.980199998380951024e-02 4.840000840374903465e-04 2.800000556446363351e-04 1.906099999704870609e-02 2.400014189373253295e-05 -4.419999785569415809e-04 1.965000000030902791e-02 -2.265000088911847155e-03 2.573999847835939901e-03 1.916000000993136471e-02 1.756999935743770204e-03 2.295000152664114154e-03 1.980399998800919104e-02 6.060002857179298775e-04 -2.378999935023582563e-03 1.916599999903129473e-02 -3.759999096270313207e-04 2.389999911879567643e-04 1.964700000183673689e-02 8.760000669914342524e-04 5.040000852727181393e-04 1.904199999466117330e-02 -1.090999655240044129e-03 -3.115000062756815083e-03 1.977800000913366302e-02 1.276800061785575077e-02 -7.857999030090640977e-03 4.266999937371656476e-03 4.159997036921009674e-04 2.394000010606629151e-03 -2.087900000468757150e-02 -3.770000940446589441e-04 -2.530000489935782613e-04 -2.050399999766629872e-02 -1.280799941705116490e-02 -7.392000964349179637e-03 4.328000078082003786e-03 -4.190011099119272790e-04 1.498699997257408462e-02 4.267999987342657904e-03 -1.470599933618115841e-02 -8.495001108356887987e-03 3.866000089660450584e-03 1.281900058906459798e-02 -7.438999025709087595e-03 4.791999936671615182e-03 2.318999952871715099e-03 -9.009998454729761189e-04 -2.088300001190055571e-02 -3.790001279179519436e-04 2.339999513905578678e-04 -1.996799999814171181e-02 2.280999947955748754e-03 -8.359998483469261582e-04 -2.088300001175572712e-02 -2.600109430812102583e-05 1.481900000282118830e-02 4.792999985341166343e-03 -1.866000031151834188e-03 -1.074000161462192442e-03 -2.035899998862715499e-02 8.999923521661857244e-06 -4.460000192629024699e-04 -1.996599999960418231e-02 2.299988905741476601e-05 1.399998185485355619e-05 -1.990700000014094043e-02 -4.100000984091344025e-04 -1.950000514853813844e-04 -2.049999999754207811e-02 3.799996987485351123e-04 2.459000007878945574e-03 -2.088400000455378075e-02
4.640018764304377368e-04 -2.348699994679286085e-02 1.813500002089939861e-02 -6.799999520316308090e-05 -7.700000532864839902e-05 -1.859999995477363340e-04 2.389999637916427600e-04 5.740000193791642549e-04 1.304999998107399294e-03 -6.549999735583255040e-04 -3.910000501041808584e-04 -5.669999959939339175e-04 -2.011100081859078931e-02 1.214599849709850458e-02 1.811900009887745799e-02 1.989799922091931017e-02 1.151900152155809279e-02 1.668599987865985665e-02 7.400187390621726011e-05 -2.342099997584216192e-02 1.858200002298621839e-02 1.030000241929492354e-04 -3.319999923758960620e-04 -1.660000002369181203e-04 2.260000130233978893e-04 -4.899998122145743471e-05 1.687999998801457697e-03 -8.099999869154688847e-05 -3.000000629985536267e-05 -1.739999995229254037e-04 -2.023600079012316880e-02 1.180199848808822366e-02 1.856300009991105476e-02 2.008499921973262020e-02 1.157600153626631330e-02 1.725199987757070758e-02 8.699998937650251678e-05 2.660000082978998710e-04 1.719999999254071465e-03 -4.489999811233290122e-04 -2.520000339909479140e-04 -3.299999726986801833e-05 6.340000136192939671e-04 -8.599995076286409625e-05 1.288999996586315082e-03 -2.620000192447692155e-04 2.429999800280481168e-04 -1.569999987965248493e-04 3.709994139253967285e-04 2.119999249038092626e-04 -1.032710000022596247e-01 1.753000282739758690e-03 -2.286999847555487228e-03 1.988699999260812312e-02 1.103000350542451217e-03 -3.236999897447328210e-03 1.915399999714496176e-02 -3.233999937833319238e-03 6.209997751605400400e-04 1.977100001723091152e-02 -1.766000022060220396e-03 1.689999885574442525e-03 1.915900000805996137e-02 -1.093000092164940181e-03 2.669999937199786684e-03 1.988600000336620405e-02 -3.600056890653361824e-05 -1.500010587770495312e-05 -1.032709999997862976e-01 2.859000081759842816e-03 3.650002360176534278e-04 1.981299998385414526e-02 4.910000834142410177e-04 2.870000561570672064e-04 1.904399999700307280e-02 2.700014049926874969e-05 -4.239999783360441123e-04 1.964400000027448703e-02 -2.268000089044900410e-03 2.576999847626030519e-03 1.917700000994492643e-02 1.737999936524376550e-03 2.283000151204164947e-03 1.978099998812605717e-02 5.950002848009748385e-04 -2.365999935843528679e-03 1.917799999907902897e-02 -3.669999087691469715e-04 2.269999918596392341e-04 1.963800000179904276e-02 8.820000682495493212e-04 4.870000857215052719e-04 1.903699999464503190e-02 -1.084999655121903026e-03 -3.117000062309026841e-03 1.977200000910254302e-02 1.275700061851434315e-02 -7.866999030926569852e-03 4.262999937441364941e-03 4.189997068773870597e-04 2.354000010862488182e-03 -2.085000000466417577e-02 -3.750000936742519568e-04 -2.560000488163468950e-04 -2.047799999767434265e-02 -1.278599941687008114e-02 -7.396000962707288684e-03 4.306000077964562689e-03 -4.250011076833061659e-04 1.495599997209932745e-02 4.246999987406741874e-03 -1.467199933881717724e-02 -8.460001105783460096e-03 3.868000089437814704e-03 1.281500058795774326e-02 -7.423999026006614099e-03 4.796999936678710864e-03 2.298999952284880213e-03 -8.919998469686003795e-04 -2.086600001179914760e-02 -3.790001275144258270e-04 2.309999514225219181e-04 -1.993599999813871343e-02 2.257999945749206930e-03 -8.049998500614503026e-04 -2.085800001165974069e-02 -2.600109356450587848e-05 1.480800000280520570e-02 4.776999985352153692e-03 -1.853000031471491475e-03 -1.067000160441041769e-03 -2.032099998870590465e-02 1.599992279460625219e-05 -4.350000187145120390e-04 -1.994699999965380416e-02 3.299988844685283046e-05 2.199998261015723269e-05 -1.990800000020413046e-02 -4.140000978725549841e-04 -2.010000517729192647e-04 -2.048499999751400569e-02 3.769996999249233989e-04 2.446000007687015778e-03 -2.084900000452423810e-02
