-2.110012943950193270e-03 1.710779998394647283e-01 -9.560001592388947837e-04 -3.219799890179822488e-02 -1.640900246098692811e-02 -2.587299980588112988e-02 -3.106700105124607370e-02 1.570099767504602381e-02 2.467900015580198891e-02 -2.041000062387541593e-03 8.629998461600554708e-04 5.220000104039946177e-04 1.869000193326833493e-03 -2.542999858466244486e-03 1.809999922235329840e-04 -5.273999980838176872e-03 -4.240004012093517719e-04 -2.337999970464758361e-03 -3.731000012218477473e-03 1.689997179253936667e-04 1.020000204257706796e-04 -3.843999836329355883e-03 -1.979000288189552807e-03 2.536000023195101281e-03 -1.480000265541290324e-04 3.729999891063838719e-04 3.000000004443576862e-04 -5.400000225531389423e-05 -1.200000465639034014e-05 -5.729999996899413223e-04 3.029999565735665363e-04 5.450000225164158352e-04 -4.000000022169039257e-04 2.220000138363819665e-04 -1.719999830602507885e-04 1.499999989463988244e-04 2.410003018649085882e-04 -4.022999982206608774e-03 -4.339999973118050967e-04 -1.650000144056687143e-04 1.949999875829372842e-04 6.200000071599524540e-05 -1.239000110018706252e-03 1.505999906996316863e-03 7.030000053347928947e-04 -2.227999798885462596e-03 -2.644000168296439801e-03 2.080000149392673939e-04 1.351003282865535825e-03 -4.033199985574172086e-02 4.212900003282936401e-02 -1.049300039798195874e-02 5.811999213936229827e-03 7.533000052114373346e-03 -8.284999274685456161e-03 -7.236000594375891631e-03 3.225700005295987355e-02 3.480000197579588995e-03 -1.100999716120958614e-03 2.070899998189066823e-02 7.300002866431231545e-04 -2.319999924670526886e-03 2.014199999828789750e-02 -3.949996401760311540e-04 -3.289000009773542475e-03 2.012300000546564729e-02 -1.216999905104619584e-03 2.399999284149745553e-04 2.048000000647793445e-02 -2.339999787392463943e-04 1.215000002778493515e-03 2.049900000007801038e-02 1.059000111140390773e-03 -3.799990031558565356e-05 1.961399999419242979e-02 -3.519997787292626894e-04 -1.426000006096924148e-03 2.054800000336738652e-02 -4.179999783094386751e-04 1.170999988338116034e-03 1.997400000113761301e-02 9.560006415892682938e-04 -7.024999907739893322e-03 1.998000000174012664e-02 1.831700090327172473e-02 -1.117399860415237665e-02 1.053999991005425373e-02 4.770000120145406579e-03 -9.699961882962369073e-05 2.043699997376718230e-02 1.233000259074986662e-03 -2.079999888332591858e-03 1.843599999527168257e-02 -1.879199895585157223e-02 -1.317800141264942673e-02 8.604000116892319278e-03 -2.196799939181559927e-02 -1.012300168993244057e-02 -2.851899986862818648e-02 1.084469998521813278e-01 5.950081832684688205e-04 -1.862700059920609913e-02 -4.867999916560533658e-03 -2.773000391020391704e-03 -2.287799997035945901e-02 1.607100080733433675e-02 -1.297099881597275732e-02 -3.146200007575316454e-02 -7.729998292847109053e-04 -3.747000078851253115e-03 -2.041199999199036150e-02 -3.518999999896018933e-03 -1.364000284791904230e-03 -1.866999997921316157e-02 -2.163000116748313266e-03 -5.900018552258482065e-05 -2.195899998800161790e-02 5.550000445562712622e-04 -2.076999978388305215e-03 -2.038600000098885617e-02 1.146999870900629933e-03 2.540000668622635497e-04 -1.990800000658498811e-02 8.009998542600791716e-04 4.360000401737790438e-04 -2.042900000485691273e-02 9.660000706022431891e-04 -2.409999947148443351e-03 -2.023000000292489095e-02 9.990000812741010525e-04 -2.515999944172184980e-03 -1.974900000300116101e-02 -2.199962577950783675e-05 -6.327000020536627245e-03 -1.889399999355867443e-02 -2.171000474336493014e-03 4.673999813939283890e-03 -2.189199999268514121e-02 -2.943000104837615889e-03 -5.300024227670156350e-05 -1.971899998370212417e-02 -7.659967401007638935e-04 -4.289700005511182246e-02 2.824000047077013850e-03
-2.109012936970130342e-03 1.709859998395443503e-01 -9.520001591525180341e-04 -3.217799890251037132e-02 -1.639900245946633583e-02 -2.586499980600151516e-02 -3.105200105045829995e-02 1.568999767617248325e-02 2.467100015573017724e-02 -2.037000062452132623e-03 8.639998464645741666e-04 5.240000103809163388e-04 1.866000193181092904e-03 -2.540999858692136008e-03 1.819999922380947921e-04 -5.268999980902768637e-03 -4.230004008292027103e-04 -2.335999970493356746e-03 -3.730000012212957450e-03 1.689997180020227994e-04 1.030000204202508138e-04 -3.838999836707506722e-03 -1.974000287811401941e-03 2.536000023162507562e-03 -1.500000264895384684e-04 3.719999889531255821e-04 2.980000004563962391e-04 -5.300000233094415429e-05 -1.100000458076008398e-05 -5.729999996964600878e-04 3.039999565735665606e-04 5.450000225920460925e-04 -4.000000022224237616e-04 2.220000139230519226e-04 -1.729999830582530076e-04 1.519999989473977214e-04 2.400003016380178192e-04 -4.019999982282239717e-03 -4.339999973092818330e-04 -1.620000143521179174e-04 1.939999878058325570e-04 5.800000070043454984e-05 -1.240000109732744592e-03 1.501999906917690208e-03 7.000000053443083221e-04 -2.223999798955572649e-03 -2.643000167992919872e-03 2.090000149161891179e-04 1.349003280226221011e-03 -4.029899985591895578e-02 4.210300003280743886e-02 -1.048700039776058641e-02 5.808999214389012206e-03 7.532000052084250608e-03 -8.283999274978585264e-03 -7.233000594312248566e-03 3.224500005295136140e-02 3.477000197540950233e-03 -1.100999716354841406e-03 2.070199998190722784e-02 7.280002864421840142e-04 -2.317999924830777339e-03 2.013299999829694376e-02 -3.939996401666391200e-04 -3.290000009709898639e-03 2.011100000546112848e-02 -1.216999905159818051e-03 2.399999284049858007e-04 2.047000000647793139e-02 -2.329999786211050064e-04 1.213000002848130688e-03 2.049300000007448982e-02 1.055000111171862029e-03 -3.899990062609769029e-05 1.960599999421550749e-02 -3.519997788970827659e-04 -1.424000006099920834e-03 2.054500000336538859e-02 -4.169999782188965479e-04 1.168999988402758504e-03 1.996300000113409440e-02 9.530006412481082864e-04 -7.020999907973776016e-03 1.997300000175268944e-02 1.829300090235864290e-02 -1.116199860596850044e-02 1.053899991017474315e-02 4.765000120069776308e-03 -9.599961920777497985e-05 2.043699997379378255e-02 1.226000258907166849e-03 -2.077999888865000346e-03 1.843299999530832387e-02 -1.877799895689383561e-02 -1.316400141158760757e-02 8.607000116801056741e-03 -2.195399939225669075e-02 -1.011600168885763533e-02 -2.850299986871245722e-02 1.084129998525059230e-01 5.910081807010355865e-04 -1.862300059901442900e-02 -4.866999916553365647e-03 -2.772000390929778291e-03 -2.286299997036598045e-02 1.606100080656864063e-02 -1.295999881671707279e-02 -3.145000007570895872e-02 -7.749998295855842125e-04 -3.742000078988529793e-03 -2.039799999198431413e-02 -3.516999999986561258e-03 -1.362000284629656145e-03 -1.865899997922619569e-02 -2.164000116942085480e-03 -5.600018559222182677e-05 -2.195299998799909655e-02 5.540000444602091907e-04 -2.074999978453946885e-03 -2.037600000098532815e-02 1.147999870885718166e-03 2.550000669488814613e-04 -1.989700000659151008e-02 7.989998543263175873e-04 4.360000400345050348e-04 -2.041700000484587482e-02 9.670000704250311272e-04 -2.406999947063823576e-03 -2.022100000293340291e-02 9.990000812166780191e-04 -2.513999944155204374e-03 -1.973200000300315976e-02 -2.299962602683031438e-05 -6.323000020602268650e-03 -1.888399999355714828e-02 -2.172000474124513407e-03 4.671999813874641756e-03 -2.188099999267762580e-02 -2.938000104847008319e-03 -5.200024188656374733e-05 -1.970699998373072123e-02 -7.679967429542819283e-04 -4.286000005527307311e-02 2.814000047051094886e-03
-2.107012922762681491e-03 1.707979998396936261e-01 -9.540001589757689509e-04 -3.214099890391258069e-02 -1.637900245664803897e-02 -2.584499980622572551e-02 -3.101800104935309443e-02 1.567399767872493591e-02 2.465200015555848653e-02 -2.037000062533282554e-03 8.649998464635753155e-04 5.230000103799174391e-04 1.863000193181092940e-03 -2.540999858919026997e-03 1.819999922546543811e-04 -5.262999980821618344e-03 -4.240004003744223156e-04 -2.334999970525476753e-03 -3.729000012137327277e-03 1.679997180776530595e-04 1.030000204157298398e-04 -3.833999836724066596e-03 -1.974000287436246739e-03 2.533000023134908147e-03 -1.500000264083883753e-04 3.709999889541244875e-04 2.990000004573951388e-04 -5.300000226635360947e-05 -1.200000458275783380e-05 -5.749999996954611526e-04 3.019999568059771738e-04 5.420000224417843805e-04 -3.990000022083873849e-04 2.230000138419018267e-04 -1.719999829836216557e-04 1.509999989408789857e-04 2.400003015623875620e-04 -4.018999982282239584e-03 -4.339999973102807084e-04 -1.630000142709678215e-04 1.929999877312011780e-04 5.900000070695327872e-05 -1.241000109738264398e-03 1.501999906841060967e-03 6.990000053498281879e-04 -2.220999799106833199e-03 -2.641000167766029486e-03 2.090000148976318051e-04 1.347003276327143721e-03 -4.024999985610517445e-02 4.206800003276953137e-02 -1.048400039757233643e-02 5.805999214608911427e-03 7.525000052070687610e-03 -8.282999275293793928e-03 -7.230000594252600568e-03 3.222900005294283832e-02 3.472000197404601605e-03 -1.099999716743980515e-03 2.069099998193382750e-02 7.260002861545748363e-04 -2.314999924993025194e-03 2.012199999830498534e-02 -3.929996405243587547e-04 -3.286000009644257040e-03 2.010100000545161220e-02 -1.217999905074795700e-03 2.379999283173690164e-04 2.045800000648545156e-02 -2.309999786061931663e-04 1.212000002988403331e-03 2.048200000006444865e-02 1.054000111203333466e-03 -3.999990070971896878e-05 1.959799999422202899e-02 -3.529997791035418804e-04 -1.422000006185540014e-03 2.053500000336891396e-02 -4.169999782796149053e-04 1.168999988391770982e-03 1.995200000113409380e-02 9.530006409014283534e-04 -7.016999907981766489e-03 1.996500000174869505e-02 1.826000090128325481e-02 -1.114799860846729662e-02 1.053599991034291465e-02 4.758000119916867311e-03 -9.499961975117106707e-05 2.042299997383142246e-02 1.213000258106705382e-03 -2.067999889856184884e-03 1.842499999537009284e-02 -1.875599895844895157e-02 -1.314300140991774869e-02 8.613000116658643679e-03 -2.193399939366993609e-02 -1.009600168732705146e-02 -2.848499986884283144e-02 1.083539998523601888e-01 5.930081762398492235e-04 -1.862200059869075289e-02 -4.865999916702978476e-03 -2.769000390840164246e-03 -2.284899997037449434e-02 1.603800080503173242e-02 -1.293799881843359437e-02 -3.142700007560397801e-02 -7.749998298384264475e-04 -3.738000078979539925e-03 -2.038899999198831234e-02 -3.516999999947922461e-03 -1.362000284622663909e-03 -1.865199997922619563e-02 -2.165000116875846932e-03 -5.600018565586555817e-05 -2.194099998799357507e-02 5.520000444287377888e-04 -2.073999978597216264e-03 -2.036800000097528998e-02 1.146999870988947741e-03 2.540000668782455570e-04 -1.989200000658498946e-02 7.979998544350669441e-04 4.350000399648680603e-04 -2.041100000483935320e-02 9.670000702367793693e-04 -2.403999947056831375e-03 -2.021400000293640045e-02 9.990000810063469176e-04 -2.510999944152207675e-03 -1.972900000300615783e-02 -2.599962609694070703e-05 -6.322000020828160739e-03 -1.888299999354158681e-02 -2.174000473901495454e-03 4.669999813736365815e-03 -2.186799999266458502e-02 -2.937000104895039210e-03 -5.100024180593910878e-05 -1.970199998373724226e-02 -7.679967477112440051e-04 -4.279900005529903989e-02 2.788000046990163610e-03
-2.107012902093541480e-03 1.705249998396976274e-01 -9.500001587030756358e-04 -3.208899890609152178e-02 -1.634800245268529933e-02 -2.581499980654372584e-02 -3.096800104776263260e-02 1.565099768247948248e-02 2.462500015530547093e-02 -2.035000062619952543e-03 8.659998466128381034e-04 5.210000103678788432e-04 1.858000192884091788e-03 -2.536999859296180070e-03 1.829999922782581372e-04 -5.255999980659318421e-03 -4.260003998430127582e-04 -2.332999970562118185e-03 -3.725000012131807290e-03 1.679997183811729640e-04 1.040000203936504122e-04 -3.825999836913966147e-03 -1.972000286838196653e-03 2.526000023088751430e-03 -1.490000264139082140e-04 3.709999890287558693e-04 2.980000004518752786e-04 -5.200000174246166763e-05 -1.900000450812643749e-05 -5.759999996939888303e-04 3.039999565404474368e-04 5.450000225860528397e-04 -4.060000022224237448e-04 2.210000143012032388e-04 -1.779999831338832509e-04 1.519999989579119617e-04 2.350003009628653266e-04 -4.010999982659390825e-03 -4.329999972906725084e-04 -1.640000141197073041e-04 1.909999876555709263e-04 5.900000071447089264e-05 -1.242000109505853869e-03 1.498999906766429512e-03 7.000000053583446203e-04 -2.213999799787505669e-03 -2.632000167236617141e-03 2.090000148500029391e-04 1.344003270535661879e-03 -4.017699985638100574e-02 4.201900003271317324e-02 -1.048200039733440496e-02 5.802999214762169511e-03 7.527000052062644830e-03 -8.282999275629433431e-03 -7.226000594258592639e-03 3.222300005293884939e-02 3.465000197312411833e-03 -1.098999717276388701e-03 2.068799998197146800e-02 7.240002857488242677e-04 -2.309999925149280181e-03 2.011699999831102759e-02 -3.939996410222991181e-04 -3.280000009727878588e-03 2.009300000545113929e-02 -1.216999905037804541e-03 2.369999283860071211e-04 2.045100000648093080e-02 -2.299999782611610608e-04 1.207000003058040540e-03 2.047600000006392570e-02 1.055000111256884296e-03 -4.099990063808421056e-05 1.959399999421750777e-02 -3.549997793745914422e-04 -1.419000006344791351e-03 2.052700000337695507e-02 -4.189999783237737495e-04 1.168999988232519464e-03 1.994400000114513252e-02 9.490006401655574735e-04 -7.007999908294277464e-03 1.995500000176178568e-02 1.821000090018192255e-02 -1.113299861224281706e-02 1.054199991060392194e-02 4.749000119738007453e-03 -9.299962043683777891e-05 2.041799997387910154e-02 1.197000257145591209e-03 -2.054999891062273508e-03 1.842899999544542547e-02 -1.872999896046724164e-02 -1.311500140793338091e-02 8.631000116487158244e-03 -2.190799939504454660e-02 -1.007600168533569034e-02 -2.845999986900632495e-02 1.082889998524799724e-01 5.920081713318733722e-04 -1.861400059833096324e-02 -4.870999916891230463e-03 -2.766000391211322681e-03 -2.284199997034989243e-02 1.601000080353898181e-02 -1.291599882052027644e-02 -3.139600007547140026e-02 -7.769998305616099450e-04 -3.728000079124806944e-03 -2.038299999198725856e-02 -3.516999999909283230e-03 -1.362000284615671889e-03 -1.864499997922619556e-02 -2.168000116750537411e-03 -5.700018587376644123e-05 -2.193199998797601760e-02 5.500000442736052144e-04 -2.070999978735491541e-03 -2.035500000096724868e-02 1.144999871189886784e-03 2.520000667359750357e-04 -1.988300000657195268e-02 7.949998544957853370e-04 4.350000397489649185e-04 -2.040000000482279641e-02 9.680000700706069793e-04 -2.400999946970213197e-03 -2.020300000294491735e-02 9.990000807590243559e-04 -2.506999944142219040e-03 -1.971900000301015157e-02 -3.399962642541328194e-05 -6.317000021424211929e-03 -1.887399999350242163e-02 -2.180000473765146118e-03 4.668999813293573178e-03 -2.185699999263046936e-02 -2.933000105061211744e-03 -4.800024149243044448e-05 -1.969099998376231883e-02 -7.679967536578584083e-04 -4.272300005533499756e-02 2.752000046914248634e-03
-2.112012870289617632e-03 1.701019998392855059e-01 -9.840001582529516073e-04 -3.199099890800881363e-02 -1.631900244522358628e-02 -2.576499980711363658e-02 -3.088000104612027147e-02 1.562599768908999598e-02 2.458000015484469378e-02 -2.021000062603393183e-03 8.659998476746583315e-04 5.240000102906009968e-04 1.874000192186859757e-03 -2.527999858089091927e-03 1.799999921809505670e-04 -5.265999978910428786e-03 -4.500004006113017692e-04 -2.344999970482946564e-03 -3.695000012995211611e-03 1.799997206580717334e-04 1.120000202160682383e-04 -3.819999837210967357e-03 -1.968000286383416678e-03 2.527000023051637154e-03 -1.470000256410460850e-04 3.609999891830130382e-04 3.010000004508243260e-04 -6.200000266658430904e-05 -7.000005267425675186e-06 -5.789999996507768330e-04 3.259999578222896291e-04 5.290000242629038169e-04 -3.930000023278785700e-04 2.080000131595818370e-04 -1.639999841320598207e-04 1.369999990156858035e-04 2.610002988711696221e-04 -3.983999980701994660e-03 -4.419999974611584230e-04 -1.720000130498439269e-04 1.769999870525266583e-04 6.100000077261400681e-05 -1.230000109627290726e-03 1.498999907652017122e-03 6.780000052921063801e-04 -2.224999801840562338e-03 -2.605000168070548475e-03 2.070000148837516647e-04 1.342003261887366643e-03 -4.006899985661917241e-02 4.193200003261633030e-02 -1.047400039746136137e-02 5.802999215344236891e-03 7.504000052018486126e-03 -8.280999276263722661e-03 -7.219000594126310372e-03 3.220400005292081702e-02 3.446000198319908951e-03 -1.113999718736337873e-03 2.066499998209132480e-02 7.260002854761269785e-04 -2.307999925019995312e-03 2.009499999829799169e-02 -3.909996421915198526e-04 -3.266000009520964985e-03 2.007300000542059509e-02 -1.210999906415708913e-03 2.549999288367919880e-04 2.044800000642983326e-02 -2.449999781170680022e-04 1.204000001908603693e-03 2.046100000014971707e-02 1.051000110602163563e-03 -3.299990094959516149e-05 1.958499999423159513e-02 -3.579997799222105399e-04 -1.413000006588663185e-03 2.051000000338751988e-02 -4.209999775818063297e-04 1.156999988051292828e-03 1.991400000116816046e-02 9.540006403300821305e-04 -7.011999907941097836e-03 1.993000000173817884e-02 1.812900089971158230e-02 -1.112699861837186319e-02 1.053899991104503830e-02 4.741000120394953110e-03 -1.029996210598595945e-04 2.039999997393325201e-02 1.178000255599867020e-03 -2.034999892505241163e-03 1.842299999553032377e-02 -1.868299896270525853e-02 -1.308300140434579505e-02 8.664000116195761172e-03 -2.186699939665543921e-02 -1.005200168219789331e-02 -2.842299986925661548e-02 1.082099998528321810e-01 5.880081653660729386e-04 -1.860500059789089999e-02 -4.870999916966860938e-03 -2.765000391211322982e-03 -2.284199997035089164e-02 1.595800080250553421e-02 -1.289999882442108628e-02 -3.136400007520034894e-02 -7.899998309325936699e-04 -3.722000080093017336e-03 -2.036799999192149754e-02 -3.485000001718889170e-03 -1.338000282194504740e-03 -1.864399997942680839e-02 -2.185000116911189807e-03 -5.400018714749430405e-05 -2.191999998788517548e-02 5.420000440649216890e-04 -2.066999979323552727e-03 -2.033800000092708324e-02 1.135999870136583179e-03 2.660000660563015566e-04 -1.988200000653625801e-02 7.989998549622543116e-04 4.300000400674679961e-04 -2.038400000483988131e-02 9.590000706866887072e-04 -2.408999947648888390e-03 -2.020100000288724967e-02 9.960000801075988633e-04 -2.496999944350131260e-03 -1.970000000300357879e-02 -3.699962617809077957e-05 -6.321000021661093288e-03 -1.888399999348186822e-02 -2.192000473464849730e-03 4.666999812412979572e-03 -2.182999999256223303e-02 -2.923000106027845608e-03 -3.500024073313126827e-05 -1.968799998383050087e-02 -7.699967633561617068e-04 -4.259900005554419916e-02 2.694000046801427965e-03
-2.100012830296123147e-03 1.695739998402040483e-01 -9.730001577917831270e-04 -3.187099891631273163e-02 -1.620300243606305132e-02 -2.567999980789189077e-02 -3.075300104375859253e-02 1.559199769865707991e-02 2.454200015417763378e-02 -2.055000063018535238e-03 8.719998451102217501e-04 5.310000104722827682e-04 1.891000190211081147e-03 -2.500999856791391151e-03 1.919999920601433605e-04 -5.266999981436051859e-03 -4.150004006649567830e-04 -2.322999970512387539e-03 -3.704000009597370035e-03 1.349997199764006413e-04 1.110000203106963767e-04 -3.782999836797472457e-03 -1.975000283606073714e-03 2.506000022854394139e-03 -1.720000258458573891e-04 3.639999872962520729e-04 3.050000005858240736e-04 -2.900000003501392308e-05 -3.800000271968548152e-05 -5.269999998019669115e-04 2.829999559773398025e-04 5.550000210327779961e-04 -3.710000021164955829e-04 2.310000136332183106e-04 -1.679999823615986718e-04 1.679999988927246136e-04 2.720003002065626775e-04 -4.000999979861072364e-03 -4.329999975048958957e-04 -1.880000111094087378e-04 1.519999858514325182e-04 7.000000088590359478e-05 -1.222000108371400174e-03 1.483999908279034835e-03 7.000000052629307091e-04 -2.186999803048999061e-03 -2.588000165182614137e-03 2.210000146570162741e-04 1.348003250067543674e-03 -3.991599985621033936e-02 4.188700003243039233e-02 -1.049300039768882864e-02 5.808999213948215501e-03 7.545000052117369939e-03 -8.278999275671368105e-03 -7.228000593991032625e-03 3.218800005291876098e-02 3.445000196602492244e-03 -1.090999718807972828e-03 2.066899998207387054e-02 7.320002867430573700e-04 -2.322999924542240580e-03 2.011899999827985661e-02 -4.019996407678090903e-04 -3.283000010327925908e-03 2.009800000549829407e-02 -1.227999903976756532e-03 2.209999275271046443e-04 2.042400000655763062e-02 -2.079999779934069062e-04 1.202000004701928677e-03 2.045599999994747800e-02 1.042000112590629702e-03 -5.899990162627188873e-05 1.958899999430724348e-02 -3.479997781567630791e-04 -1.437000005841350099e-03 2.050100000335629280e-02 -4.439999794929944056e-04 1.182999986321785430e-03 1.992400000126914525e-02 9.620006394909816176e-04 -7.001999907351038992e-03 1.991500000168403006e-02 1.804500089493583578e-02 -1.106399862472680178e-02 1.053699991144577651e-02 4.710000117613770063e-03 -6.899962344235500012e-05 2.036199997407040635e-02 1.155000254064605936e-03 -2.011999894207778996e-03 1.845999999563430541e-02 -1.863999896575642065e-02 -1.304200140108470463e-02 8.673000115917452874e-03 -2.181399940172711396e-02 -9.981001678135549213e-03 -2.836899986962008319e-02 1.080909998527604388e-01 5.880081563530869431e-04 -1.861800059723403566e-02 -4.885999916633445607e-03 -2.767000392312814108e-03 -2.280899997026609310e-02 1.592900079565901655e-02 -1.280399882653944672e-02 -3.128900007513615855e-02 -7.749998326698651985e-04 -3.701000078985533254e-03 -2.039499999202527142e-02 -3.555999998626369757e-03 -1.374000287497328249e-03 -1.857699997899893776e-02 -2.171000115159583879e-03 -7.300018603173466655e-05 -2.186299998794347457e-02 5.810000440516575318e-04 -2.064999976349000434e-03 -2.031300000114435664e-02 1.178999874610878748e-03 2.110000693653387284e-04 -1.982500000671867310e-02 7.709998572146025460e-04 4.000000379468242502e-04 -2.038700000465535830e-02 9.590000692767364741e-04 -2.386999947602939584e-03 -2.015500000290922425e-02 1.002000080651345914e-03 -2.501999943866382598e-03 -1.967000000303170681e-02 -5.599962762890645806e-05 -6.297000023032140945e-03 -1.881799999340096410e-02 -2.161000472178064603e-03 4.653999814812456032e-03 -2.177499999272036399e-02 -2.936000104659909453e-03 -4.900024166038747316e-05 -1.963199998374475994e-02 -7.709967744417615086e-04 -4.245600005566877583e-02 2.645000046664108557e-03
