3.810012832657627951e-03 -1.698559997143084532e-01 -2.462999851365486360e-03 3.764000004093744425e-03 -2.799971497011223236e-05 3.579999792512324696e-04 3.799000171154310202e-03 -2.096999710408200147e-03 2.274999981124712928e-03 -3.719999958013661982e-04 -2.800002775787917213e-05 3.770000020813547847e-04 5.089998574392696476e-04 1.806000037415011290e-03 -1.082000004613577378e-03 3.261300085241519015e-02 -1.306799755806671397e-02 -2.462400016696572949e-02 3.211499891113633876e-02 1.625400245427810475e-02 2.544099980649410300e-02 2.176999950405905659e-03 7.180001654991107233e-04 8.529999872660812884e-04 7.420000100830435961e-04 -1.249999437684764961e-04 1.139999960291268019e-04 1.305000118554297409e-03 -1.601999901773978842e-03 -4.720000056032112889e-04 2.600001177228617095e-05 -1.449999978877768441e-04 1.460000000013208545e-04 1.316999920160477882e-03 1.112000100376178864e-03 7.719999916195996849e-04 -1.683000226996469182e-03 2.965999872229812227e-03 -4.849999936727508623e-04 -1.699999545380584821e-04 -5.860000126503746038e-04 2.070000015237170421e-04 1.999993492831943921e-06 1.110000004928760861e-04 3.419999998780850082e-04 1.531999823872943643e-03 2.285000115266222053e-03 -6.000000107388512704e-04 5.751996640924766056e-03 4.439400043474543006e-02 -2.800000760943310071e-04 -1.072189999479050276e-01 6.789919097193559353e-04 1.874100059115514985e-02 6.150000291934754233e-03 -2.558999517067929007e-03 1.782599996860901453e-02 -2.412999992184619493e-03 1.362999837572620139e-03 2.009100001195794280e-02 3.670000272132979430e-04 1.089000047585006589e-03 1.985099999688643563e-02 2.595000308754011158e-03 -2.521999782383485718e-03 2.137999998819514053e-02 1.889999743965950539e-03 4.753000161659128205e-03 1.873899998481981174e-02 1.045000036732492621e-03 9.970000993258006788e-04 2.031499999323587227e-02 -2.746999952243191819e-03 8.569998126147751645e-04 2.039400001430700590e-02 -5.349999203296186990e-04 4.569999802095681693e-04 2.069500000249663643e-02 -7.199994820497211331e-05 8.020000149037391371e-04 2.037199999959633107e-02 -5.530002814514937276e-04 5.175999978084069170e-03 1.992999999788229448e-02 -1.367100075068447898e-02 1.235099899925139189e-02 3.323000006312482046e-02 1.284000056995469310e-03 5.780001153337580152e-04 1.824499999233515635e-02 1.662000203801048369e-03 -1.237999854365924406e-03 1.995899999206261072e-02 1.661099909818129772e-02 1.422000128771683941e-02 3.145799989410565795e-02 2.463099835523345493e-02 2.019800184164266196e-02 -2.123000015613486779e-02 9.210000494390189682e-03 -7.095999311096703489e-03 -7.660000043749841565e-03 -2.187000128577610506e-03 2.389998146001093109e-04 -2.001899998816680445e-02 -1.769400102982083417e-02 1.295899865279930181e-02 -9.008999915276117224e-03 -2.071000636098161915e-03 7.097999825404915225e-03 -1.798499999565840446e-02 -2.557000177246504177e-03 8.819997866099199514e-04 -2.002599998676673695e-02 -1.986000021134449577e-03 -1.336000172310828965e-03 -2.213399998770307006e-02 1.110999828521239781e-03 8.080000640526704102e-04 -1.999500000693964913e-02 -6.899999437734326193e-04 -2.237000072625888215e-03 -2.046399999395681277e-02 8.699984710692542972e-05 4.999999857552455459e-04 -2.084800000097966274e-02 7.339997735241203438e-04 1.550000035742833118e-03 -1.979200000559983366e-02 -1.373000436499204491e-03 4.297999875993318078e-03 -2.018899999671440806e-02 -6.410002125452436347e-04 1.327999931233811264e-03 -2.030999999778828127e-02 -3.600019776686231535e-05 1.184999977707311327e-03 -1.959200000098495348e-02 1.835999787904658885e-03 1.323000118582944853e-03 -2.029700001145596719e-02 -3.600319830127247098e-05 3.918299995477299291e-02 -4.255200003894026028e-02
3.809012825542863745e-03 -1.697619997143850756e-01 -2.463999851453861113e-03 3.762000004152815831e-03 -2.899971512436937387e-05 3.549999792632711065e-04 3.796000170986490053e-03 -2.094999710638087605e-03 2.271999981139275100e-03 -3.739999958714766140e-04 -2.700002790814081061e-05 3.780000020913956596e-04 5.089998578008613720e-04 1.801000037412014542e-03 -1.085000004608583073e-03 3.259500085207567982e-02 -1.306299755942106830e-02 -2.461700016687136741e-02 3.209699891168067004e-02 1.624600245290577089e-02 2.542999980660145404e-02 2.174999950546126128e-03 7.160001653458524093e-04 8.509999872791187709e-04 7.400000099317830329e-04 -1.229999439197370433e-04 1.139999960381687634e-04 1.304000118176146207e-03 -1.596999901849609086e-03 -4.720000056026857761e-04 2.500001168561620743e-05 -1.439999979654048550e-04 1.440000000058418205e-04 1.317999920154958125e-03 1.112000100450810354e-03 7.709999916140797705e-04 -1.681000226693948104e-03 2.961999872381072645e-03 -4.849999936797950864e-04 -1.719999547815088102e-04 -5.830000128046316718e-04 2.040000015317601229e-04 4.999993562942338267e-06 1.100000007187679988e-04 3.409999998625242975e-04 1.528999824024204193e-03 2.283000115039331233e-03 -6.000000107202939576e-04 5.751996643621503855e-03 4.435900043475442256e-02 -2.710000760593703098e-04 -1.071869999481004504e-01 6.809919121315332127e-04 1.873300059097651390e-02 6.147000291630585686e-03 -2.555999517308803638e-03 1.781199996862257648e-02 -2.407999992121676557e-03 1.360999837934789370e-03 2.007500001193233963e-02 3.650000274330212225e-04 1.085000047418762954e-03 1.983599999690147109e-02 2.597000308741323656e-03 -2.522999782248207343e-03 2.136399998818510129e-02 1.890999744073052283e-03 4.751000161726766542e-03 1.873099998481629266e-02 1.040000036655214580e-03 9.970000989336651361e-04 2.030099999326347160e-02 -2.750999952065979939e-03 8.539998123032642918e-04 2.038500001433208100e-02 -5.339999202335566275e-04 4.549999802752096776e-04 2.068500000249311188e-02 -7.199994795212976990e-05 7.980000148947493776e-04 2.036299999960032581e-02 -5.540002805936093504e-04 5.163999977999449500e-03 1.992099999789980272e-02 -1.365400075033005277e-02 1.234499900051912527e-02 3.321200006303697688e-02 1.282000056870160210e-03 5.790001151735076458e-04 1.823599999234519486e-02 1.662000203600109060e-03 -1.235999854374914128e-03 1.994999999206061025e-02 1.659899909883272642e-02 1.421000128679029625e-02 3.143899989418188351e-02 2.461599835622216639e-02 2.018500184050920493e-02 -2.122900015603908577e-02 9.204000494115268174e-03 -7.091999311545490667e-03 -7.655000043720718364e-03 -2.183000128516892051e-03 2.389998149136179971e-04 -2.000799998818888689e-02 -1.767700102905900988e-02 1.294899865408601601e-02 -9.007999915359965817e-03 -2.065000635448961241e-03 7.089999825866688012e-03 -1.797699999568353260e-02 -2.559000177056604697e-03 8.799997864656516249e-04 -2.001899998675369871e-02 -1.978000021213952193e-03 -1.334000171692801585e-03 -2.212099998774922152e-02 1.115999828657588408e-03 8.070000644418093023e-04 -1.998400000696624879e-02 -6.889999436370840887e-04 -2.238000072539270136e-03 -2.045299999396133286e-02 8.499984723223440533e-05 4.989999856129748862e-04 -2.083900000096762864e-02 7.349997735793188354e-04 1.550000035828452130e-03 -1.978200000560535396e-02 -1.369000436379415233e-03 4.296999876303829978e-03 -2.018099999673549083e-02 -6.420002124088949359e-04 1.326999931169168612e-03 -2.029899999778176159e-02 -3.500019761395408059e-05 1.183999977796925708e-03 -1.957800000098947751e-02 1.832999787970897168e-03 1.323000118368040587e-03 -2.028500001143940940e-02 -3.400319605666858689e-05 3.915499995494722829e-02 -4.252900003892333414e-02
3.804012812183908080e-03 -1.695849997147582666e-01 -2.458999851603062715e-03 3.761000004082705114e-03 -2.799971519900075508e-05 3.559999792677920371e-04 3.791000170765119592e-03 -2.091999711015239943e-03 2.272999981163877515e-03 -3.719999959471068768e-04 -2.600002775688029888e-05 3.780000020793570581e-04 5.109998578875313497e-04 1.800000037565272675e-03 -1.083000004618623821e-03 3.256100085111068854e-02 -1.304899756197551441e-02 -2.460000016669767683e-02 3.206099891308838989e-02 1.622600245016410370e-02 2.541099980682014203e-02 2.171999950551646054e-03 7.160001651199605129e-04 8.519999872956783571e-04 7.390000097048922368e-04 -1.199999439953672954e-04 1.139999960406919865e-04 1.304000118111555513e-03 -1.595999901847611419e-03 -4.700000056036846572e-04 2.600001160446609115e-05 -1.429999978907734760e-04 1.429999999993231119e-04 1.317999920160477798e-03 1.112000100451809121e-03 7.719999916140797948e-04 -1.680000226688428515e-03 2.961999872457701886e-03 -4.839999936853148980e-04 -1.719999546948388540e-04 -5.840000128026339452e-04 2.060000015327589928e-04 3.999993644092452855e-06 1.090000006441366198e-04 3.419999998690430873e-04 1.529999824024204109e-03 2.283000115114961273e-03 -6.000000107258138477e-04 5.753996648572236652e-03 4.429500043492565903e-02 -2.510000760064819538e-04 -1.071269999481225255e-01 6.809919166653530384e-04 1.872900059064532344e-02 6.146000291468286560e-03 -2.553999517386431814e-03 1.780999996862609944e-02 -2.405999992073645701e-03 1.359999838081055699e-03 2.007000001192230099e-02 3.660000274700124902e-04 1.084000047487400841e-03 1.982899999689695034e-02 2.600000308767275083e-03 -2.523999782030307126e-03 2.135499998816953876e-02 1.891999744093483989e-03 4.750000161792408346e-03 1.872099998481177238e-02 1.038000036470835110e-03 9.990000987764112005e-04 2.029499999327251392e-02 -2.747999952121178441e-03 8.539998125201663090e-04 2.037500001431552174e-02 -5.329999201264551010e-04 4.529999803428488825e-04 2.067700000248959280e-02 -7.199994779147725918e-05 7.950000148827629076e-04 2.035099999960332529e-02 -5.540002803462868971e-04 5.159999977989459564e-03 1.991099999790379993e-02 -1.363000074880970323e-02 1.232299900230828145e-02 3.318600006292647675e-02 1.281000056912671428e-03 5.780001150918841115e-04 1.822999999235171489e-02 1.661000203626060391e-03 -1.236999854459534505e-03 1.994099999206713075e-02 1.658199910043974337e-02 1.418700128548060907e-02 3.141499989429869660e-02 2.459599835833981701e-02 2.015700183899660214e-02 -2.122900015590072076e-02 9.202000493910456047e-03 -7.088999311692756149e-03 -7.651000043712674788e-03 -2.183000128456173694e-03 2.389998149246056272e-04 -1.999699998818888630e-02 -1.764800102728252690e-02 1.292499865627230217e-02 -9.014999915496068814e-03 -2.052000634541398163e-03 7.077999826849881715e-03 -1.797699999574330423e-02 -2.553000176828066660e-03 8.779997869334174847e-04 -2.000499998678481953e-02 -1.966000021584935527e-03 -1.328000170770255329e-03 -2.210599998782145775e-02 1.117999828740386375e-03 8.070000646080529487e-04 -1.996900000697729091e-02 -6.889999438142961749e-04 -2.235000072530280400e-03 -2.044399999396433187e-02 8.399984736858304992e-05 4.979999855483322347e-04 -2.082800000096110896e-02 7.359997736880682408e-04 1.549000035910075724e-03 -1.977600000560987212e-02 -1.367000436265145913e-03 4.295999876462083464e-03 -2.017399999674553135e-02 -6.400002122946257246e-04 1.325999931327421230e-03 -2.029199999779180211e-02 -3.700019742405456693e-05 1.181999977652657382e-03 -1.957100000097643927e-02 1.831999788188396015e-03 1.321000118304397003e-03 -2.027300001143188951e-02 -3.200319169276976956e-05 3.909999995513544629e-02 -4.249200003887943639e-02
3.799012790715954133e-03 -1.693009997151344037e-01 -2.456999851859144497e-03 3.757000004082705017e-03 -2.799971550152178753e-05 3.559999792898714890e-04 3.785000170835229813e-03 -2.092999711470019952e-03 2.271999981197995490e-03 -3.729999960227371584e-04 -2.500002783251056233e-05 3.780000020838780186e-04 5.119998582066119649e-04 1.796000037643899786e-03 -1.080000004620148245e-03 3.250600084953127189e-02 -1.302599756610621148e-02 -2.457100016641705631e-02 3.200799891497033839e-02 1.619900244612673332e-02 2.538199980713966297e-02 2.170999950476016314e-03 7.170001650443302800e-04 8.519999873001993717e-04 7.360000097915622014e-04 -1.209999442202603135e-04 1.159999960582504182e-04 1.303000117727884204e-03 -1.590999901924240864e-03 -4.710000056031592229e-04 2.700001169113605467e-05 -1.439999978131454650e-04 1.449999999948021188e-04 1.316999920003697694e-03 1.114000100375180146e-03 7.709999916176019097e-04 -1.675000226147976921e-03 2.954999872837851295e-03 -4.819999937059220633e-04 -1.729999549162097600e-04 -5.810000128772653625e-04 2.070000015352822266e-04 5.999993417201675463e-06 1.120000007953971124e-04 3.419999998550067350e-04 1.522999824710396469e-03 2.274000114586548563e-03 -5.990000106781850388e-04 5.758996654308520292e-03 4.422200043534275926e-02 -2.120000759611632524e-04 -1.070749999481280523e-01 6.809919205971275407e-04 1.872800059035829162e-02 6.146000291527356496e-03 -2.554999517389428248e-03 1.780699996862709911e-02 -2.400999992031134338e-03 1.358999838453213600e-03 2.006400001189569821e-02 3.680000276693039143e-04 1.081000047633667123e-03 1.982399999688891010e-02 2.603000309031156846e-03 -2.527999781810407603e-03 2.134799998815697583e-02 1.895999744185673580e-03 4.749000162097925110e-03 1.872399998479069155e-02 1.038000036216345104e-03 1.002000098771416679e-03 2.028999999326951478e-02 -2.746999952137737979e-03 8.539998125927999399e-04 2.037200001431000232e-02 -5.349999201595741650e-04 4.529999801855951152e-04 2.067100000250063005e-02 -7.199994781355668406e-05 7.950000148787674057e-04 2.034699999960332475e-02 -5.540002797522845107e-04 5.151999977987462703e-03 1.990899999791178807e-02 -1.360000074743509396e-02 1.230299900455221820e-02 3.316100006278085988e-02 1.287000056842560990e-03 5.790001155466645549e-04 1.823099999231759735e-02 1.659000203615020996e-03 -1.236999854612792771e-03 1.993899999207816853e-02 1.655499910180331311e-02 1.416700128341162428e-02 3.138799989446770800e-02 2.456599836000755363e-02 2.013400183671471000e-02 -2.124200015571214850e-02 9.202000493932535607e-03 -7.088999311688760213e-03 -7.647000043712675124e-03 -2.178000128330864846e-03 2.379998153117468226e-04 -1.998799998821548449e-02 -1.761800102592835093e-02 1.290599865852622673e-02 -9.029999915642685296e-03 -2.031000633137542213e-03 7.058999828432123078e-03 -1.798299999584024311e-02 -2.550000176752436221e-03 8.769997871603082322e-04 -2.000499998680038000e-02 -1.947000022376581870e-03 -1.316000169312303873e-03 -2.208499998793831895e-02 1.123999828762465647e-03 8.070000650658299942e-04 -1.996500000701040972e-02 -6.879999437701372466e-04 -2.235000072446659356e-03 -2.043599999396985070e-02 8.599984763963267943e-05 4.949999857075837884e-04 -2.082000000096915354e-02 7.339997739480780877e-04 1.546000035764808498e-03 -1.977000000559583567e-02 -1.363000436005136137e-03 4.292999876770597564e-03 -2.016799999676461078e-02 -6.370002121913961608e-04 1.324999931559306355e-03 -2.028699999780736452e-02 -3.700019739645529261e-05 1.181999977657651867e-03 -1.956600000097643774e-02 1.829999788367255714e-03 1.319000118158130926e-03 -2.026800001141885327e-02 -3.100318634954974496e-05 3.903299995526101490e-02 -4.244200003881803268e-02
3.799012757934933180e-03 -1.688679997151403822e-01 -2.462999852291657826e-03 3.758000003780184121e-03 -2.399971542589154146e-05 3.559999792803560971e-04 3.783000170418439681e-03 -2.087999711628272907e-03 2.264999981204040939e-03 -3.809999963142184391e-04 -2.100002843555487733e-05 3.800000021240413609e-04 5.109998585516441032e-04 1.791000037562276263e-03 -1.086000004609633798e-03 3.241200084699239620e-02 -1.298899757316850957e-02 -2.452400016593514823e-02 3.191799891841513859e-02 1.614900243925907961e-02 2.532099980768639721e-02 2.168999950405905465e-03 7.180001648940686652e-04 8.529999873102401924e-04 7.280000098561529177e-04 -1.219999448273001197e-04 1.139999961034081490e-04 1.297000117971334717e-03 -1.593999902375025637e-03 -4.680000055670434540e-04 3.200001161550578341e-05 -1.429999974349941815e-04 1.449999999662039555e-04 1.316999919846917290e-03 1.116000100374181210e-03 7.699999916156041345e-04 -1.674000225111232530e-03 2.940999872909486144e-03 -4.859999936974576315e-04 -1.719999550785099762e-04 -5.790000128036328075e-04 2.050000015277646183e-04 3.999993265941164835e-06 1.140000006441366058e-04 3.419999998640486558e-04 1.517999825558888740e-03 2.263000114211393635e-03 -5.960000106395979937e-04 5.749996663385222029e-03 4.410600043471702564e-02 -1.570000757956148960e-04 -1.069829999483676297e-01 6.829919275391292503e-04 1.871200058984846468e-02 6.151000291142036912e-03 -2.550999517026259888e-03 1.779199996859550173e-02 -2.394999992128844010e-03 1.359999838902999775e-03 2.006000001186158260e-02 3.690000285271883402e-04 1.069000047700307534e-03 1.981499999689537508e-02 2.598000309147651104e-03 -2.530999782208537014e-03 2.132799998818757023e-02 1.901999744475507421e-03 4.744000162535725283e-03 1.870799998476256262e-02 1.045000036539297551e-03 9.970000992908399293e-04 2.027999999323587196e-02 -2.744999951847904452e-03 8.489998127280784339e-04 2.035600001430395642e-02 -5.349999198697405782e-04 4.479999801696130947e-04 2.065500000250562740e-02 -7.499994803105543772e-05 7.970000146398900686e-04 2.033499999961788443e-02 -5.490002791488901015e-04 5.142999978351629406e-03 1.989499999789317783e-02 -1.356100074552332897e-02 1.227399900745085488e-02 3.311000006259454814e-02 1.296000056748723619e-03 5.790001162103559874e-04 1.821399999226791869e-02 1.661000203327411481e-03 -1.233999854472519813e-03 1.992799999206413403e-02 1.650899910326129524e-02 1.414400127988168707e-02 3.133699989474459519e-02 2.451299836234492602e-02 2.010200183269131996e-02 -2.125700015538763490e-02 9.202000493522913618e-03 -7.082999311680769280e-03 -7.639000043718668399e-03 -2.165000128432446793e-03 2.399998163039300406e-04 -1.997899998828924287e-02 -1.755900102388962755e-02 1.287699866296044236e-02 -9.057999915939390911e-03 -2.007000631307504640e-03 7.033999830236261665e-03 -1.799399999594774799e-02 -2.550000176588488373e-03 8.759997871762903237e-04 -1.998899998679938561e-02 -1.912000023118549680e-03 -1.304000166635278747e-03 -2.205499998814350326e-02 1.133999829103625717e-03 8.030000658291248147e-04 -1.995800000706161523e-02 -6.809999431689673548e-04 -2.242000071904261694e-03 -2.042299999400149640e-02 8.399984817621205158e-05 4.889999855713063684e-04 -2.080500000095211743e-02 7.329997737819058659e-04 1.549000035700165943e-03 -1.975900000559331279e-02 -1.359000435496156029e-03 4.286999877083107202e-03 -2.015799999678069901e-02 -6.320002117304470519e-04 1.319999931952440869e-03 -2.027199999782996684e-02 -3.300019710332627093e-05 1.178999977972159221e-03 -1.955400000099551810e-02 1.822999788363383533e-03 1.320000117641704530e-03 -2.025500001138121065e-02 -3.300317791875327314e-05 3.892699995518467126e-02 -4.236700003870111364e-02
3.775012717965165951e-03 -1.683389997169485175e-01 -2.455999852687587148e-03 3.761000004481287757e-03 -3.399971520898950985e-05 3.459999792737853178e-04 3.775000168147884215e-03 -2.058999712247299926e-03 2.250999981219232223e-03 -3.629999950428392744e-04 -4.000002710417649790e-05 3.500000020436625989e-04 5.409998605897889000e-04 1.765000039844169272e-03 -1.073000004749258664e-03 3.230300084382085879e-02 -1.294399758137025451e-02 -2.448200016537843346e-02 3.182299892223808963e-02 1.609400243201327199e-02 2.525999980826572344e-02 2.137999950192279262e-03 7.190001625245588278e-04 8.279999874803567602e-04 7.490000091219295485e-04 -1.119999432350692297e-04 1.179999959775024094e-04 1.315000116772290168e-03 -1.577999901011683300e-03 -4.660000056823828925e-04 1.700001217638904730e-05 -1.509999985774390760e-04 1.370000000569927909e-04 1.320999920975851139e-03 1.101000100675703650e-03 7.689999916085078985e-04 -1.673000223478838524e-03 2.919999872993107436e-03 -4.779999936820011051e-04 -1.899999549714082611e-04 -5.810000141729684906e-04 1.970000016291197629e-04 4.999994302685348190e-06 1.000000007157714004e-04 3.379999998725130334e-04 1.522999824817498080e-03 2.272000114578557727e-03 -6.070000106761872655e-04 5.761996675704633870e-03 4.394800043569151854e-02 -9.000007570403068284e-05 -1.068589999477531916e-01 6.739919369052947522e-04 1.870000058917299646e-02 6.146000291066407509e-03 -2.549999517404411692e-03 1.779199996862210198e-02 -2.399999991242783483e-03 1.344999838479898945e-03 2.001500001190416669e-02 3.750000270924378387e-04 1.086000048127119420e-03 1.978799999684527355e-02 2.603000308659102029e-03 -2.525999781850363224e-03 2.130799998815497906e-02 1.916999744409268996e-03 4.744000163658192853e-03 1.869599998467976615e-02 1.035000035916048243e-03 1.004000098517555993e-03 2.026299999328407681e-02 -2.738999951892063210e-03 8.489998131738689738e-04 2.034800001427083949e-02 -5.349999197957579829e-04 4.459999801556288439e-04 2.064100000250762221e-02 -7.399994784057923854e-05 7.920000146815584386e-04 2.030099999961735777e-02 -5.360002787392675796e-04 5.136999979326832035e-03 1.988699999782741340e-02 -1.349300074212656138e-02 1.222499901253777492e-02 3.305400006226814208e-02 1.292000056828225898e-03 5.770001158948495287e-04 1.820099999229199406e-02 1.652000203410786301e-03 -1.236999855179163072e-03 1.990199999211680892e-02 1.645999910711736652e-02 1.408900127612086779e-02 3.128199989507000206e-02 2.445799836701579438e-02 2.003900182851467773e-02 -2.127400015502111177e-02 9.192000493478754905e-03 -7.082999312445062423e-03 -7.647000043663469693e-03 -2.179000128349648565e-03 2.399998152600895979e-04 -1.996399998821196328e-02 -1.748800102024610989e-02 1.282699866830521937e-02 -9.082999916281355932e-03 -1.967000628612414724e-03 6.997999833256478112e-03 -1.799899999613258431e-02 -2.545000176252847773e-03 8.719997875604348740e-04 -1.998299998682298920e-02 -1.887000024720049147e-03 -1.281000164719550520e-03 -2.202999998830447448e-02 1.141999827896837119e-03 8.210000664621353896e-04 -1.993000000712375278e-02 -6.919999436006694970e-04 -2.236000072732199310e-03 -2.041899999394677229e-02 8.499984892312265235e-05 4.799999856589232919e-04 -2.079300000094864639e-02 7.389997740860744860e-04 1.546000036167931779e-03 -1.974500000562343441e-02 -1.350000435608777636e-03 4.288999877770771803e-03 -2.015099999683237636e-02 -6.270002113302163005e-04 1.314999932334587644e-03 -2.026799999785257322e-02 -4.000019637132752051e-05 1.170999977465721469e-03 -1.953100000094889002e-02 1.827999788942473924e-03 1.313000118028845526e-03 -2.024600001140182057e-02 -2.600316740178102381e-05 3.879399995579699278e-02 -4.228400003860689760e-02
