9.307824070000000560e+00 0.000000000000000000e+00 0.000000000000000000e+00 0.000000000000000000e+00 1.612442078743027452e+01 -4.418148310279611871e-17 0.000000000000000000e+00 4.031984110235314334e-01 2.164858678104582168e+01
9.307824070000000560e+00 0.000000000000000000e+00 0.000000000000000000e+00 0.000000000000000000e+00 1.612442078743027452e+01 -4.418148310279611871e-17 0.000000000000000000e+00 4.031984110235314334e-01 2.164858678104582168e+01
9.307824070000000560e+00 0.000000000000000000e+00 0.000000000000000000e+00 0.000000000000000000e+00 1.612442078743027452e+01 -4.418148310279611871e-17 0.000000000000000000e+00 4.031984110235314334e-01 2.164858678104582168e+01
9.307824070000000560e+00 0.000000000000000000e+00 0.000000000000000000e+00 0.000000000000000000e+00 1.612442078743027452e+01 -4.418148310279611871e-17 0.000000000000000000e+00 4.031984110235314334e-01 2.164858678104582168e+01
9.307824070000000560e+00 0.000000000000000000e+00 0.000000000000000000e+00 0.000000000000000000e+00 1.612442078743027452e+01 -4.418148310279611871e-17 0.000000000000000000e+00 4.031984110235314334e-01 2.164858678104582168e+01
