1.299999999999999886e-04 1.619653667434238997e+01 4.873851785772938427e+00 1.551430000000000087e+00 2.759526711155256606e+00 4.873848656515777478e+00 1.299999999999999886e-04 3.644874285611673148e+00 2.314118340251163808e+00 1.551430000000000087e+00 9.574783664197568100e-01 2.314121601977336518e+00 3.102739999999999831e+00 1.619653667434238997e+01 4.873851785772938427e+00 4.654040000000000177e+00 2.759526711155256606e+00 4.873848656515777478e+00 3.102730000000000210e+00 3.644874285611673148e+00 2.314118340251163808e+00 4.654040000000000177e+00 9.574783664197568100e-01 2.314121601977336518e+00 6.205350000000000144e+00 1.619653667434238997e+01 4.873851785772938427e+00 7.756649999999999601e+00 2.759526711155256606e+00 4.873848656515777478e+00 6.205339999999999634e+00 3.644874285611673148e+00 2.314118340251163808e+00 7.756649999999999601e+00 9.574783664197568100e-01 2.314121601977336518e+00 1.299999999999999886e-04 5.446922816561868608e+00 4.873855393055659846e+00 1.551430000000000087e+00 8.134328734019838691e+00 4.873851945114791029e+00 1.299999999999999886e-04 9.019686306742308091e+00 2.314121442635482584e+00 1.551430000000000087e+00 6.332290387550392197e+00 2.314124704361654850e+00 3.102739999999999831e+00 5.446922816561868608e+00 4.873855393055659846e+00 4.654040000000000177e+00 8.134328734019838691e+00 4.873851945114791029e+00 3.102730000000000210e+00 9.019686306742308091e+00 2.314121442635482584e+00 4.654040000000000177e+00 6.332290387550392197e+00 2.314124704361654850e+00 6.205350000000000144e+00 5.446922816561868608e+00 4.873855393055659846e+00 7.756649999999999601e+00 8.134328734019838691e+00 4.873851945114791029e+00 6.205339999999999634e+00 9.019686306742308091e+00 2.314121442635482584e+00 7.756649999999999601e+00 6.332290387550392197e+00 2.314124704361654850e+00 1.299999999999999886e-04 1.082173465147780789e+01 4.873848497173923988e+00 1.551430000000000087e+00 1.350914056893577886e+01 4.873845049233056059e+00 1.299999999999999886e-04 1.439448832960689018e+01 2.314124731234496579e+00 1.551430000000000087e+00 1.170709241041497251e+01 2.314127992960668845e+00 3.102739999999999831e+00 1.082173465147780789e+01 4.873848497173923988e+00 4.654040000000000177e+00 1.350914056893577886e+01 4.873845049233056059e+00 3.102730000000000210e+00 1.439448832960689018e+01 2.314124731234496579e+00 4.654040000000000177e+00 1.170709241041497251e+01 2.314127992960668845e+00 6.205350000000000144e+00 1.082173465147780789e+01 4.873848497173923988e+00 7.756649999999999601e+00 1.350914056893577886e+01 4.873845049233056059e+00 6.205339999999999634e+00 1.439448832960689018e+01 2.314124731234496579e+00 7.756649999999999601e+00 1.170709241041497251e+01 2.314127992960668845e+00 1.299999999999999886e-04 1.633093619943068830e+01 1.209005031894509941e+01 1.551430000000000087e+00 2.893926236243554051e+00 1.209004718968793846e+01 1.299999999999999886e-04 3.779273810699970593e+00 9.530316873423323898e+00 1.551430000000000087e+00 1.091877891508054255e+00 9.530320135149496608e+00 3.102739999999999831e+00 1.633093619943068830e+01 1.209005031894509941e+01 4.654040000000000177e+00 2.893926236243554051e+00 1.209004718968793846e+01 3.102730000000000210e+00 3.779273810699970593e+00 9.530316873423323898e+00 4.654040000000000177e+00 1.091877891508054255e+00 9.530320135149496608e+00 6.205350000000000144e+00 1.633093619943068830e+01 1.209005031894509941e+01 7.756649999999999601e+00 2.893926236243554051e+00 1.209004718968793846e+01 6.205339999999999634e+00 3.779273810699970593e+00 9.530316873423323898e+00 7.756649999999999601e+00 1.091877891508054255e+00 9.530320135149496608e+00 1.299999999999999886e-04 5.581322155435470833e+00 1.209004392796176397e+01 1.551430000000000087e+00 8.268728072893441805e+00 1.209004048002089782e+01 1.299999999999999886e-04 9.154085831830606423e+00 9.530319975807643118e+00 1.551430000000000087e+00 6.466689912638689641e+00 9.530323237533814051e+00 3.102739999999999831e+00 5.581322155435470833e+00 1.209004392796176397e+01 4.654040000000000177e+00 8.268728072893441805e+00 1.209004048002089782e+01 3.102730000000000210e+00 9.154085831830606423e+00 9.530319975807643118e+00 4.654040000000000177e+00 6.466689912638689641e+00 9.530323237533814051e+00 6.205350000000000144e+00 5.581322155435470833e+00 1.209004392796176397e+01 7.756649999999999601e+00 8.268728072893441805e+00 1.209004048002089782e+01 6.205339999999999634e+00 9.154085831830606423e+00 9.530319975807643118e+00 7.756649999999999601e+00 6.466689912638689641e+00 9.530323237533814051e+00 1.299999999999999886e-04 1.095613417656610622e+01 1.209004703034608319e+01 1.551430000000000087e+00 1.364354009402407542e+01 1.209004358240521704e+01 1.299999999999999886e-04 1.452888766848049151e+01 9.530313266140602479e+00 1.551430000000000087e+00 1.184149174928857562e+01 9.530316527866775189e+00 3.102739999999999831e+00 1.095613417656610622e+01 1.209004703034608319e+01 4.654040000000000177e+00 1.364354009402407542e+01 1.209004358240521704e+01 3.102730000000000210e+00 1.452888766848049151e+01 9.530313266140602479e+00 4.654040000000000177e+00 1.184149174928857562e+01 9.530316527866775189e+00 6.205350000000000144e+00 1.095613417656610622e+01 1.209004703034608319e+01 7.756649999999999601e+00 1.364354009402407542e+01 1.209004358240521704e+01 6.205339999999999634e+00 1.452888766848049151e+01 9.530313266140602479e+00 7.756649999999999601e+00 1.184149174928857562e+01 9.530316527866775189e+00 1.299999999999999886e-04 1.646533553830429142e+01 1.930623885385120531e+01 1.551430000000000087e+00 3.028325575117156720e+00 1.930623572459404258e+01 1.299999999999999886e-04 3.913673335788268037e+00 1.674651540659548488e+01 1.551430000000000087e+00 1.226277416596351699e+00 1.674651866832165581e+01 3.102739999999999831e+00 1.646533553830429142e+01 1.930623885385120531e+01 4.654040000000000177e+00 3.028325575117156720e+00 1.930623572459404258e+01 3.102730000000000210e+00 3.913673335788268037e+00 1.674651540659548488e+01 4.654040000000000177e+00 1.226277416596351699e+00 1.674651866832165581e+01 6.205350000000000144e+00 1.646533553830429142e+01 1.930623885385120531e+01 7.756649999999999601e+00 3.028325575117156720e+00 1.930623572459404258e+01 6.205339999999999634e+00 3.913673335788268037e+00 1.674651540659548488e+01 7.756649999999999601e+00 1.226277416596351699e+00 1.674651866832165581e+01 1.299999999999999886e-04 5.715721680523768278e+00 1.930624246113392672e+01 1.551430000000000087e+00 8.403127597981738361e+00 1.930623901319305702e+01 1.299999999999999886e-04 9.288485170704207761e+00 1.674650851071374902e+01 1.551430000000000087e+00 6.601089251512291867e+00 1.674651177243992350e+01 3.102739999999999831e+00 5.715721680523768278e+00 1.930624246113392672e+01 4.654040000000000177e+00 8.403127597981738361e+00 1.930623901319305702e+01 3.102730000000000210e+00 9.288485170704207761e+00 1.674650851071374902e+01 4.654040000000000177e+00 6.601089251512291867e+00 1.674651177243992350e+01 6.205350000000000144e+00 5.715721680523768278e+00 1.930624246113392672e+01 7.756649999999999601e+00 8.403127597981738361e+00 1.930623901319305702e+01 6.205339999999999634e+00 9.288485170704207761e+00 1.674650851071374902e+01 7.756649999999999601e+00 6.601089251512291867e+00 1.674651177243992350e+01 1.299999999999999886e-04 1.109053370165440278e+01 1.930624556351824239e+01 1.551430000000000087e+00 1.377793961911237375e+01 1.930624211557737624e+01 1.299999999999999886e-04 1.466328719356878985e+01 1.674651179931276346e+01 1.551430000000000087e+00 1.197589127437687218e+01 1.674651506103893439e+01 3.102739999999999831e+00 1.109053370165440278e+01 1.930624556351824239e+01 4.654040000000000177e+00 1.377793961911237375e+01 1.930624211557737624e+01 3.102730000000000210e+00 1.466328719356878985e+01 1.674651179931276346e+01 4.654040000000000177e+00 1.197589127437687218e+01 1.674651506103893439e+01 6.205350000000000144e+00 1.109053370165440278e+01 1.930624556351824239e+01 7.756649999999999601e+00 1.377793961911237375e+01 1.930624211557737624e+01 6.205339999999999634e+00 1.466328719356878985e+01 1.674651179931276346e+01 7.756649999999999601e+00 1.197589127437687218e+01 1.674651506103893439e+01 1.299999999999999886e-04 1.858527534452641961e+00 3.593984663709819394e+00 1.299999999999999886e-04 3.658073936062175679e+00 5.923788440652027809e+00 1.551430000000000087e+00 2.746276510730398801e+00 1.264149492390227003e+00 1.200000000000000030e-04 5.887077948712364506e-02 1.264162938597148678e+00 1.551439999999999930e+00 4.545923826073947183e+00 3.594001398515755064e+00 1.551430000000000087e+00 9.706778306555644553e-01 5.923781704112146329e+00 3.102739999999999831e+00 1.858527534452641961e+00 3.593984663709819394e+00 3.102739999999999831e+00 3.658073936062175679e+00 5.923788440652027809e+00 4.654040000000000177e+00 2.746276510730398801e+00 1.264149492390227003e+00 3.102730000000000210e+00 5.887077948712364506e-02 1.264162938597148678e+00 4.654040000000000177e+00 4.545923826073947183e+00 3.594001398515755064e+00 4.654040000000000177e+00 9.706778306555644553e-01 5.923781704112146329e+00 6.205350000000000144e+00 1.858527534452641961e+00 3.593984663709819394e+00 6.205339999999999634e+00 3.658073936062175679e+00 5.923788440652027809e+00 7.756639999999999979e+00 2.746276510730398801e+00 1.264149492390227003e+00 6.205339999999999634e+00 5.887077948712364506e-02 1.264162938597148678e+00 7.756649999999999601e+00 4.545923826073947183e+00 3.594001398515755064e+00 7.756649999999999601e+00 9.706778306555644553e-01 5.923781704112146329e+00 1.299999999999999886e-04 7.233339555583277125e+00 3.593987766094138170e+00 1.299999999999999886e-04 9.032885957192812398e+00 5.923791543036347029e+00 1.551430000000000087e+00 8.121078533594980442e+00 1.264152780989240776e+00 1.200000000000000030e-04 5.433672616137009470e+00 1.264156228930108261e+00 1.551439999999999930e+00 9.920725848938529268e+00 3.594004687114768615e+00 1.551430000000000087e+00 6.345489851786199509e+00 5.923784806496464661e+00 3.102739999999999831e+00 7.233339555583277125e+00 3.593987766094138170e+00 3.102739999999999831e+00 9.032885957192812398e+00 5.923791543036347029e+00 4.654040000000000177e+00 8.121078533594980442e+00 1.264152780989240776e+00 3.102730000000000210e+00 5.433672616137009470e+00 1.264156228930108261e+00 4.654040000000000177e+00 9.920725848938529268e+00 3.594004687114768615e+00 4.654040000000000177e+00 6.345489851786199509e+00 5.923784806496464661e+00 6.205350000000000144e+00 7.233339555583277125e+00 3.593987766094138170e+00 6.205339999999999634e+00 9.032885957192812398e+00 5.923791543036347029e+00 7.756639999999999979e+00 8.121078533594980442e+00 1.264152780989240776e+00 6.205339999999999634e+00 5.433672616137009470e+00 1.264156228930108261e+00 7.756649999999999601e+00 9.920725848938529268e+00 3.594004687114768615e+00 7.756649999999999601e+00 6.345489851786199509e+00 5.923784806496464661e+00 1.299999999999999886e-04 1.260814157844785832e+01 3.593991054693151721e+00 1.299999999999999886e-04 1.440768779384269571e+01 5.923784833369306391e+00 1.551430000000000087e+00 1.349589036851092061e+01 1.264145885107505363e+00 1.200000000000000030e-04 1.080848463726764663e+01 1.264159331314427037e+00 1.551439999999999930e+00 1.529553768385447121e+01 3.593997791233033645e+00 1.551430000000000087e+00 1.172029187465078159e+01 5.923788095095478212e+00 3.102739999999999831e+00 1.260814157844785832e+01 3.593991054693151721e+00 3.102739999999999831e+00 1.440768779384269571e+01 5.923784833369306391e+00 4.654040000000000177e+00 1.349589036851092061e+01 1.264145885107505363e+00 3.102730000000000210e+00 1.080848463726764663e+01 1.264159331314427037e+00 4.654040000000000177e+00 1.529553768385447121e+01 3.593997791233033645e+00 4.654040000000000177e+00 1.172029187465078159e+01 5.923788095095478212e+00 6.205350000000000144e+00 1.260814157844785832e+01 3.593991054693151721e+00 6.205339999999999634e+00 1.440768779384269571e+01 5.923784833369306391e+00 7.756639999999999979e+00 1.349589036851092061e+01 1.264145885107505363e+00 6.205339999999999634e+00 1.080848463726764663e+01 1.264159331314427037e+00 7.756649999999999601e+00 1.529553768385447121e+01 3.593997791233033645e+00 7.756649999999999601e+00 1.172029187465078159e+01 5.923788095095478212e+00 1.299999999999999886e-04 1.992927059540939405e+00 1.081018319688197948e+01 1.299999999999999886e-04 3.792473461150473124e+00 1.313998697382418790e+01 1.551430000000000087e+00 2.880676035818696246e+00 8.480348025562387093e+00 1.200000000000000030e-04 1.932701183607261064e-01 8.480351473503255022e+00 1.551439999999999930e+00 4.680323351162244627e+00 1.081019993168791338e+01 1.551430000000000087e+00 1.105077355743862011e+00 1.313998023728430553e+01 3.102739999999999831e+00 1.992927059540939405e+00 1.081018319688197948e+01 3.102739999999999831e+00 3.792473461150473124e+00 1.313998697382418790e+01 4.654040000000000177e+00 2.880676035818696246e+00 8.480348025562387093e+00 3.102730000000000210e+00 1.932701183607261064e-01 8.480351473503255022e+00 4.654040000000000177e+00 4.680323351162244627e+00 1.081019993168791338e+01 4.654040000000000177e+00 1.105077355743862011e+00 1.313998023728430553e+01 6.205350000000000144e+00 1.992927059540939405e+00 1.081018319688197948e+01 6.205339999999999634e+00 3.792473461150473124e+00 1.313998697382418790e+01 7.756639999999999979e+00 2.880676035818696246e+00 8.480348025562387093e+00 6.205339999999999634e+00 1.932701183607261064e-01 8.480351473503255022e+00 7.756649999999999601e+00 4.680323351162244627e+00 1.081019993168791338e+01 7.756649999999999601e+00 1.105077355743862011e+00 1.313998023728430553e+01 1.299999999999999886e-04 7.367739080671574570e+00 1.081018629926629870e+01 1.299999999999999886e-04 9.167285296066415512e+00 1.313998007794245204e+01 1.551430000000000087e+00 8.255478058683276998e+00 8.480351314161399756e+00 1.200000000000000030e-04 5.568072141225306915e+00 8.480354762102269461e+00 1.551439999999999930e+00 1.005512518781213238e+01 1.081019322202087452e+01 1.551430000000000087e+00 6.479889376874496953e+00 1.313998333966862475e+01 3.102739999999999831e+00 7.367739080671574570e+00 1.081018629926629870e+01 3.102739999999999831e+00 9.167285296066415512e+00 1.313998007794245204e+01 4.654040000000000177e+00 8.255478058683276998e+00 8.480351314161399756e+00 3.102730000000000210e+00 5.568072141225306915e+00 8.480354762102269461e+00 4.654040000000000177e+00 1.005512518781213238e+01 1.081019322202087452e+01 4.654040000000000177e+00 6.479889376874496953e+00 1.313998333966862475e+01 6.205350000000000144e+00 7.367739080671574570e+00 1.081018629926629870e+01 6.205339999999999634e+00 9.167285296066415512e+00 1.313998007794245204e+01 7.756639999999999979e+00 8.255478058683276998e+00 8.480351314161399756e+00 6.205339999999999634e+00 5.568072141225306915e+00 8.480354762102269461e+00 7.756649999999999601e+00 1.005512518781213238e+01 1.081019322202087452e+01 7.756649999999999601e+00 6.479889376874496953e+00 1.313998333966862475e+01 1.299999999999999886e-04 1.274254110353615665e+01 1.081018958786531314e+01 1.299999999999999886e-04 1.454208731893099404e+01 1.313998336654146648e+01 1.551430000000000087e+00 1.363028989359921894e+01 8.480344418279665675e+00 1.200000000000000030e-04 1.094288416235594319e+01 8.480357864486586905e+00 1.551439999999999930e+00 1.542993720894276777e+01 1.081019632440519196e+01 1.551430000000000087e+00 1.185469121352438471e+01 1.313997663000158411e+01 3.102739999999999831e+00 1.274254110353615665e+01 1.081018958786531314e+01 3.102739999999999831e+00 1.454208731893099404e+01 1.313998336654146648e+01 4.654040000000000177e+00 1.363028989359921894e+01 8.480344418279665675e+00 3.102730000000000210e+00 1.094288416235594319e+01 8.480357864486586905e+00 4.654040000000000177e+00 1.542993720894276777e+01 1.081019632440519196e+01 4.654040000000000177e+00 1.185469121352438471e+01 1.313997663000158411e+01 6.205350000000000144e+00 1.274254110353615665e+01 1.081018958786531314e+01 6.205339999999999634e+00 1.454208731893099404e+01 1.313998336654146648e+01 7.756639999999999979e+00 1.363028989359921894e+01 8.480344418279665675e+00 6.205339999999999634e+00 1.094288416235594319e+01 8.480357864486586905e+00 7.756649999999999601e+00 1.542993720894276777e+01 1.081019632440519196e+01 7.756649999999999601e+00 1.185469121352438471e+01 1.313997663000158411e+01 1.299999999999999886e-04 2.127326584629237072e+00 1.802638173005414046e+01 1.299999999999999886e-04 3.926872800024075794e+00 2.035617550873029558e+01 1.551430000000000087e+00 3.015075560906993690e+00 1.569654655873454629e+01 1.200000000000000030e-04 3.276696434490236065e-01 1.569655000667541422e+01 1.551439999999999930e+00 4.814722690035847741e+00 1.802638846659402105e+01 1.551430000000000087e+00 1.239476880832159456e+00 2.035617877045646651e+01 3.102739999999999831e+00 2.127326584629237072e+00 1.802638173005414046e+01 3.102739999999999831e+00 3.926872800024075794e+00 2.035617550873029558e+01 4.654040000000000177e+00 3.015075560906993690e+00 1.569654655873454629e+01 3.102730000000000210e+00 3.276696434490236065e-01 1.569655000667541422e+01 4.654040000000000177e+00 4.814722690035847741e+00 1.802638846659402105e+01 4.654040000000000177e+00 1.239476880832159456e+00 2.035617877045646651e+01 6.205350000000000144e+00 2.127326584629237072e+00 1.802638173005414046e+01 6.205339999999999634e+00 3.926872800024075794e+00 2.035617550873029558e+01 7.756639999999999979e+00 3.015075560906993690e+00 1.569654655873454629e+01 6.205339999999999634e+00 3.276696434490236065e-01 1.569655000667541422e+01 7.756649999999999601e+00 4.814722690035847741e+00 1.802638846659402105e+01 7.756649999999999601e+00 1.239476880832159456e+00 2.035617877045646651e+01 1.299999999999999886e-04 7.502138605759872014e+00 1.802638483243845968e+01 1.299999999999999886e-04 9.301684821154712068e+00 2.035617861111461480e+01 1.551430000000000087e+00 8.389877397556880112e+00 1.569653984906750743e+01 1.200000000000000030e-04 5.702471666313604359e+00 1.569655329527442866e+01 1.551439999999999930e+00 1.018952471290042894e+01 1.802639175519303549e+01 1.551430000000000087e+00 6.614288715748099179e+00 2.035617187457473065e+01 3.102739999999999831e+00 7.502138605759872014e+00 1.802638483243845968e+01 3.102739999999999831e+00 9.301684821154712068e+00 2.035617861111461480e+01 4.654040000000000177e+00 8.389877397556880112e+00 1.569653984906750743e+01 3.102730000000000210e+00 5.702471666313604359e+00 1.569655329527442866e+01 4.654040000000000177e+00 1.018952471290042894e+01 1.802639175519303549e+01 4.654040000000000177e+00 6.614288715748099179e+00 2.035617187457473065e+01 6.205350000000000144e+00 7.502138605759872014e+00 1.802638483243845968e+01 6.205339999999999634e+00 9.301684821154712068e+00 2.035617861111461480e+01 7.756639999999999979e+00 8.389877397556880112e+00 1.569653984906750743e+01 6.205339999999999634e+00 5.702471666313604359e+00 1.569655329527442866e+01 7.756649999999999601e+00 1.018952471290042894e+01 1.802639175519303549e+01 7.756649999999999601e+00 6.614288715748099179e+00 2.035617187457473065e+01 1.299999999999999886e-04 1.287694044240975977e+01 1.802637812277141904e+01 1.299999999999999886e-04 1.467648684401929238e+01 2.035618189971362568e+01 1.551430000000000087e+00 1.376468941868751550e+01 1.569654295145182488e+01 1.200000000000000030e-04 1.107728350122954630e+01 1.569654639939269281e+01 1.551439999999999930e+00 1.556433673403106610e+01 1.802639485757735116e+01 1.551430000000000087e+00 1.198909073861268126e+01 2.035617516317374509e+01 3.102739999999999831e+00 1.287694044240975977e+01 1.802637812277141904e+01 3.102739999999999831e+00 1.467648684401929238e+01 2.035618189971362568e+01 4.654040000000000177e+00 1.376468941868751550e+01 1.569654295145182488e+01 3.102730000000000210e+00 1.107728350122954630e+01 1.569654639939269281e+01 4.654040000000000177e+00 1.556433673403106610e+01 1.802639485757735116e+01 4.654040000000000177e+00 1.198909073861268126e+01 2.035617516317374509e+01 6.205350000000000144e+00 1.287694044240975977e+01 1.802637812277141904e+01 6.205339999999999634e+00 1.467648684401929238e+01 2.035618189971362568e+01 7.756639999999999979e+00 1.376468941868751550e+01 1.569654295145182488e+01 6.205339999999999634e+00 1.107728350122954630e+01 1.569654639939269281e+01 7.756649999999999601e+00 1.556433673403106610e+01 1.802639485757735116e+01 7.756649999999999601e+00 1.198909073861268126e+01 2.035617516317374509e+01