-2.825556853099999898e+03
-2.825521246169999813e+03
-2.825414825230000133e+03
-2.825238272919999872e+03
-2.824992669449999994e+03
