-4.000000000000000327e-05 2.048683340792086319e-03 -8.953047353616410244e-04 -3.209999999999999963e-04 1.873952877653446572e-03 -1.255113386246186052e-03 7.299999999999999903e-05 -2.135234189070489043e-03 1.672051122969777075e-03 3.460000000000000076e-04 -2.369169260517551504e-03 1.731417631600972113e-03 2.280000000000000126e-04 1.465360405720073393e-03 -1.390528274199378730e-03 5.800000000000000034e-05 2.971506099336048562e-03 -1.074520126199908412e-03 7.360000000000000006e-04 -2.316496438638449701e-03 1.874461589303813873e-03 0.000000000000000000e+00 -2.248538316436366272e-03 1.764176986449350702e-03 -2.579999999999999828e-04 1.628922296677169255e-03 -1.415578380517298245e-03 3.579999999999999741e-04 1.761735951492567846e-03 -1.212016269370414651e-03 -7.110000000000000434e-04 -2.369531647637500727e-03 1.980467563694067196e-03 -3.220000000000000206e-04 -2.367007746829123682e-03 1.686369569949279024e-03 8.899999999999999491e-05 1.517703773895998304e-03 -1.211471937232491258e-03 -2.269999999999999882e-04 1.216783166338269041e-03 -1.472913685901457333e-03 5.599999999999999916e-05 -1.409448871372570231e-03 1.868570009121035911e-03 -1.190000000000000058e-04 -2.147764974977385641e-03 1.536260919329913857e-03 -4.519999999999999821e-04 1.238843835110154095e-03 -1.040249466334670133e-03 -1.489999999999999897e-04 1.620814841313445061e-03 -1.045363214475271852e-03 -1.959999999999999937e-04 -1.493680694852317879e-03 1.642099260649458126e-03 -6.799999999999999946e-05 -2.723201026023205473e-03 1.034889449103702569e-03 2.410000000000000033e-04 1.139153385333931167e-03 -1.076399351858892735e-03 3.400000000000000244e-04 1.261527551729924035e-03 -1.540758656060806737e-03 1.979999999999999881e-04 -1.569494190889518656e-03 1.706522189941887769e-03 2.480000000000000108e-04 -2.160321538327421038e-03 1.506489578801873579e-03 1.459999999999999981e-04 2.997750786308611519e-03 -1.867146277929531686e-03 4.769999999999999934e-04 2.077976216015746998e-03 -1.577968581966345029e-03 4.800000000000000122e-05 -2.460818201453898301e-03 3.548855863418558070e-04 -5.090000000000000123e-04 -1.845570991364746307e-03 1.060551137773633502e-03 2.829999999999999942e-04 1.959647138334559210e-03 -2.077851797702900179e-03 -1.369999999999999961e-04 2.478859399573509186e-03 -1.856481908650354498e-03 3.440000000000000132e-04 -1.902621281803526434e-03 8.435758756794242089e-04 -6.899999999999999667e-05 -1.586966862034371603e-03 7.146755759117424597e-04 -3.400000000000000244e-04 2.047570282453644100e-03 -2.136499224996982020e-03 -4.609999999999999840e-04 2.116920745191612410e-03 -1.688712988810529532e-03 -2.629999999999999959e-04 -1.818989654870221224e-03 8.230149667382207846e-04 6.369999999999999794e-04 -1.819059831226005819e-03 1.034052866356462630e-03 -7.200000000000000182e-05 1.701501389768209039e-03 -1.599961880988685654e-03 -2.709999999999999735e-04 2.617543086960483038e-03 -1.821058260436877758e-03 6.000000000000000152e-05 -1.544829442528446997e-03 1.204975930671334326e-03 3.669999999999999760e-04 -2.147252192875689480e-03 1.134181652201507592e-03 3.390000000000000001e-04 1.246528689578017737e-03 -2.077572435815153249e-03 -6.999999999999999895e-06 3.518465653829635966e-03 -1.618799692000587884e-03 6.030000000000000204e-04 -1.914861240326802853e-03 1.528922637118732605e-03 4.199999999999999768e-05 -2.168242818841234314e-03 1.188581961222455333e-03 -3.499999999999999964e-04 1.274430727181794605e-03 -2.083092969988349554e-03 3.820000000000000153e-04 2.454658724879246658e-03 -1.867033086041645744e-03 -5.529999999999999976e-04 -1.851611463613270355e-03 1.541747057015489548e-03 -3.800000000000000209e-04 -2.191194431852878152e-03 1.083991218514681687e-03 5.300000000000000078e-05 2.199425081529513253e-03 -1.340188908601654388e-03 -3.040000000000000167e-04 1.147716375010288028e-03 -9.925442672915117757e-04 -9.799999999999999684e-05 -2.335921437939768568e-03 1.851819385300144862e-03 -3.849999999999999798e-04 -2.140744720818659949e-03 1.215074499891689690e-03 -5.580000000000000107e-04 1.823263973812190922e-03 -1.023129259575045278e-03 -7.999999999999999638e-06 1.716358475982849999e-03 -4.800443541193137337e-04 -2.700000000000000035e-04 -2.188107537591919664e-03 1.733046278647349791e-03 8.500000000000000611e-05 -2.724049034421166093e-03 7.208507876593558007e-04 3.710000000000000190e-04 1.858414032731009599e-03 -1.122801087881761641e-03 2.599999999999999772e-04 1.215214693222650341e-03 -1.073815277119756712e-03 4.350000000000000026e-04 -2.224883397105723720e-03 1.691723934122614341e-03 3.649999999999999816e-04 -2.086895899909268267e-03 1.099051637977891413e-03 7.600000000000000418e-05 2.557744054698706318e-03 -8.967844504971204814e-04 3.800000000000000209e-04 1.482219951751762152e-03 -1.290824935701586403e-03 2.199999999999999943e-05 -2.131601658981367199e-03 3.097472637940234912e-04 -4.989999999999999861e-04 -2.055023179778407878e-03 1.521531376795576956e-03 4.060000000000000024e-04 1.535401286055470800e-03 -1.066776401491524671e-03 2.099999999999999884e-05 1.854169760909267582e-03 -1.511789501792386000e-03 3.229999999999999907e-04 -1.509477433741603352e-03 7.402370411056612273e-04 9.600000000000000243e-05 -1.927787386615572272e-03 1.157098868725531032e-03 -3.820000000000000153e-04 1.544487100103700489e-03 -1.115954119851377468e-03 -5.130000000000000011e-04 1.558772573821278406e-03 -1.369264058939176267e-03 -2.329999999999999986e-04 -1.447426587050107665e-03 7.960912479737971680e-04 4.650000000000000270e-04 -2.129941422053609288e-03 1.472918035268850267e-03 -5.599999999999999916e-05 1.678695941906376042e-03 -6.763770654206615425e-04 -4.279999999999999950e-04 1.589175581241684954e-03 -1.884919619502421675e-03 0.000000000000000000e+00 -1.510462908554589378e-03 1.224339332816197414e-03 3.879999999999999985e-04 -1.932875277622730491e-03 2.065351098761383612e-03 2.210000000000000050e-04 1.085977783778159034e-03 -1.246438627907639181e-03 6.200000000000000270e-05 2.589186978114922221e-03 -1.732514875076148148e-03 5.150000000000000498e-04 -1.746629670045864256e-03 1.539791802717327277e-03 -6.000000000000000152e-06 -2.036348732160125821e-03 2.148292308097259073e-03 -2.310000000000000042e-04 1.132528451711926377e-03 -1.217300417342813239e-03 4.470000000000000232e-04 1.555535284578573197e-03 -1.865289784036533406e-03 -4.189999999999999931e-04 -1.595693095568892451e-03 1.534980307611067069e-03 -3.490000000000000263e-04 -1.878480701349719267e-03 2.032332466565612943e-03 -1.669999999999999935e-04 2.022199341477029077e-03 -1.833974324610317943e-03 -3.499999999999999964e-04 1.670003985324018756e-03 -1.626379933779894833e-03 6.000000000000000152e-05 -1.887115370297861574e-03 9.243011301440493856e-04 -3.209999999999999963e-04 -1.746118351015017028e-03 6.006194337919800287e-04 -6.359999999999999551e-04 1.594087339669109354e-03 -1.836002601715657325e-03 -1.200000000000000030e-05 2.285222531673487302e-03 -1.190760673154693354e-03 -3.060000000000000111e-04 -1.962752693910176181e-03 7.296758612893450161e-04 1.600000000000000131e-04 -2.411196454122438437e-03 1.190208500137915064e-05 6.719999999999999628e-04 1.656951798270946130e-03 -1.790165282371066228e-03 3.339999999999999870e-04 1.520184699017425485e-03 -1.561578842349402568e-03 3.280000000000000038e-04 -1.932007304219870991e-03 8.231195395816258854e-04 2.130000000000000003e-04 -1.919752993904176889e-03 6.218564483833471110e-04 -7.999999999999999638e-06 3.166191542121512235e-03 -9.321207639561543455e-04 4.040000000000000080e-04 1.742522984174603396e-03 -6.325580207563847538e-04 1.060000000000000016e-04 -2.492074910175050718e-03 1.200614276974922403e-03 -6.199999999999999999e-04 -2.729449220732843139e-03 1.129022121767716711e-03 4.299999999999999894e-04 2.119946042296115118e-03 -1.096666666655388058e-03 2.300000000000000002e-05 2.063474480482878782e-03 -7.455542021851360897e-04 2.880000000000000073e-04 -1.828460747184994283e-03 1.603326634221390653e-03 6.700000000000000226e-05 -2.558898585808097766e-03 8.347952009620805735e-04 -3.049999999999999868e-04 2.233218659470916599e-03 -1.136782925184454032e-03 -5.320000000000000293e-04 1.726270790662990176e-03 -5.922483915586227365e-04 -2.900000000000000017e-04 -1.772384505908479067e-03 1.714301654673283572e-03 6.130000000000000466e-04 -2.880622141565460093e-03 1.174845129165041826e-03 -5.099999999999999960e-05 -1.303685095621355625e-03 -1.857556767766131982e-04 6.099999999999999872e-05 -2.467898669388535974e-03 -2.400857297514719406e-04 1.640000000000000019e-04 -7.105070936582654211e-05 1.053413342359628879e-04 8.700000000000000051e-05 8.861227682887268383e-04 -1.075687426495412638e-03 -2.959999999999999849e-04 -1.781779848500139552e-03 -4.548995180024056548e-04 -3.139999999999999888e-04 -8.254957723241917794e-04 6.254803992731397056e-04 5.339999999999999695e-04 -1.340379313283501621e-03 -3.300974045969598926e-04 -2.669999999999999847e-04 -2.095285603457284259e-03 3.800832013449775013e-04 6.200000000000000270e-05 -1.900572760777223828e-04 3.746041000975782365e-04 -1.800000000000000046e-05 8.194509905534269308e-04 -3.593216860711410444e-04 -3.100000000000000135e-05 -1.769296347802432967e-03 -5.901554317745226876e-04 2.900000000000000017e-05 -1.130354089147081074e-03 4.211218744597256545e-04 -5.810000000000000277e-04 -1.337765151578985999e-03 -2.971403695576447851e-04 2.059999999999999928e-04 -2.190820619082207814e-03 2.448387530687339345e-04 -4.899999999999999842e-05 -8.277503933601509651e-05 6.655293278978133839e-05 1.050000000000000044e-04 6.420720090678031910e-04 -3.780218712874097655e-04 2.469999999999999865e-04 -1.857152162017125345e-03 -4.204900083415986055e-04 3.930000000000000117e-04 -9.753322568745952494e-04 5.282537162196863272e-04 1.999999999999999909e-06 -4.590608044370977307e-04 -2.674979959356045523e-04 6.999999999999999387e-05 -1.138262560629629437e-03 -1.346037274026569896e-03 2.320000000000000014e-04 2.796643942375472494e-03 1.159424839072275708e-04 1.550000000000000000e-04 6.557602123806352372e-04 1.958227358058925709e-04 -5.349999999999999938e-04 5.929987838610511174e-04 -1.670332135336955902e-03 3.999999999999999819e-06 -2.433428985796969295e-03 5.332326962158288371e-05 6.099999999999999872e-05 -3.039387088434474969e-04 -2.623857108658512256e-04 3.350000000000000113e-04 -1.031152186790567195e-03 -1.180003037147375885e-03 3.899999999999999929e-05 3.080964241403753162e-03 -2.454146352428854803e-04 1.019999999999999992e-04 2.652892767282912564e-04 7.111832391535812675e-04 -6.099999999999999872e-05 6.031087787321277047e-04 -1.664519390399595618e-03 -3.699999999999999811e-05 -2.645535465150703185e-03 1.032816664750043517e-04 -2.139999999999999975e-04 -3.050058653532437174e-04 -3.733850855351870642e-04 -3.080000000000000055e-04 -9.152911853543889984e-04 -1.081143397525304028e-03 -8.000000000000000654e-05 2.704131337558506997e-03 1.966792038677261727e-04 -1.479999999999999925e-04 2.364260786838193098e-04 5.576941001285494037e-04 5.240000000000000517e-04 6.022894340738500990e-04 -1.708511761037365736e-03 1.129999999999999955e-04 -2.365144256343101273e-03 2.290821832601578625e-04 -1.800000000000000046e-05 1.358474115837739822e-04 -1.566801353320193243e-03 6.000000000000000152e-06 3.360892879460546686e-04 1.627697469676536648e-04 2.500000000000000120e-05 1.142761680741066332e-03 -3.993491467749161832e-04 2.400000000000000061e-05 2.282586941893224950e-03 -2.045405893668453560e-04 -4.500000000000000283e-05 4.611517831633714105e-05 -5.849601613177195280e-04 2.329999999999999986e-04 -4.473737970962261964e-04 -1.626951347051196987e-03 2.910000000000000260e-04 1.435667023844103187e-04 -1.581947724157301612e-03 -2.699999999999999899e-05 6.075851670775785562e-04 -1.353375954689273089e-04 4.000000000000000327e-05 1.512545666687903139e-03 -7.903028572538799666e-04 -8.100000000000000375e-05 2.438650113387215521e-03 -5.785115595012092294e-04 -9.200000000000000007e-05 -2.473539949874772447e-04 -7.685271635822218473e-04 -1.699999999999999987e-05 -6.529800002117151390e-04 -2.087202462465850145e-03 -3.959999999999999762e-04 9.584861461968242707e-05 -1.620065752701256101e-03 4.399999999999999886e-05 5.741984150139222559e-04 5.308502189841535996e-06 9.600000000000000243e-05 1.273353647937277688e-03 -3.687756598324083896e-04 7.700000000000000139e-05 2.594686084212371145e-03 -6.854357186452080929e-04 3.499999999999999693e-05 8.122083832251043465e-05 -5.796129531180169853e-04 -1.579999999999999916e-04 -3.612597819706453591e-04 -1.460526059312370305e-03 -1.900000000000000105e-05 6.212675579521696008e-04 -1.011744345887906392e-03 5.800000000000000034e-05 7.591462524732836385e-04 -5.362293980711703651e-04 7.200000000000000182e-05 1.537817807414202471e-03 -4.537150991533957147e-04 -7.299999999999999903e-05 2.110411849908885862e-03 -1.608577888622169478e-03 -4.580000000000000195e-04 4.177360916027961354e-05 9.003782347312289927e-04 -1.720000000000000066e-04 -1.335212706566382126e-04 -2.415555221522305927e-04 5.060000000000000478e-04 5.964581075121359269e-04 -1.001280543096210156e-03 -1.700000000000000122e-04 1.020815808143718398e-03 8.800616935128695165e-05 7.399999999999999623e-05 1.248928092383243477e-03 -2.302968086100040744e-04 -9.000000000000000228e-06 1.875012878189609910e-03 -1.037095321859623619e-03 -3.000000000000000076e-06 4.133242664006496161e-05 9.303916543628513698e-04 -8.299999999999999815e-05 -3.622237490175806568e-04 -5.993587870780312530e-04 -5.670000000000000127e-04 5.495034999971666221e-04 -9.984056808186058708e-04 2.469999999999999865e-04 1.076780320603195956e-03 1.929822301707565489e-04 2.300000000000000002e-05 1.500600765380183431e-03 -4.650240240465087875e-04 8.799999999999999771e-05 1.825338112901023517e-03 -1.019167196092442274e-03 3.159999999999999832e-04 -1.085623703187279683e-05 8.133431884005101536e-04 2.689999999999999791e-04 -2.286967456130056570e-04 -3.037940067644853736e-04 -9.200000000000000007e-05 -9.085428980388643308e-04 1.966259342615602704e-03 3.699999999999999811e-05 -1.844800355141354865e-03 9.945253388779654122e-04 -2.400000000000000061e-05 7.887630478779454743e-04 2.181690366276180411e-03 -1.099999999999999971e-05 5.823675472244067147e-04 1.088344173476308175e-03 -5.619999999999999996e-04 -1.389200257735885742e-03 1.452120740126849451e-03 -2.699999999999999899e-05 -5.103211613948081034e-04 1.383742863480297769e-03 3.399999999999999973e-05 -6.470065789515181201e-04 2.207430969881833509e-03 3.710000000000000190e-04 -1.667119120621389722e-03 1.244259955820553511e-03 1.200000000000000030e-05 1.077102698023044451e-03 1.660230639974903969e-03 2.599999999999999840e-05 2.443745997116202637e-04 1.306675956393085801e-03 -1.299999999999999920e-05 -1.267321675197777969e-03 1.551868477537287358e-03 -9.999999999999999547e-07 -6.316998107076378464e-04 1.633046340172848417e-03 5.000000000000000409e-06 -6.212904092536121557e-04 2.191949412593611514e-03 -2.629999999999999959e-04 -1.515959088510342168e-03 1.251446379979139541e-03 3.199999999999999855e-05 8.139005287954598905e-04 2.296242132098980180e-03 -2.199999999999999943e-05 1.818453275608974105e-04 1.278835515945764495e-03 4.440000000000000045e-04 -1.438229004339687967e-03 1.451033538921850732e-03 -4.699999999999999724e-05 -3.950144945215785901e-04 1.667644910980110818e-03 -4.800000000000000122e-05 -1.057280795578699993e-03 5.317803299300111891e-04 -2.199999999999999943e-05 -2.052825926066967344e-03 2.432688168822673847e-04 -5.399999999999999798e-05 2.817713363741282655e-03 2.805786873477525770e-04 -2.799999999999999958e-05 1.389065797152862040e-03 1.816448515972881846e-03 -1.010000000000000020e-04 3.069309529957219050e-04 -1.026893563176407278e-03 2.069999999999999900e-04 -2.712578249050433266e-03 6.386229269126564778e-04 2.959999999999999849e-04 -1.170516169814488777e-03 5.738962416698850134e-04 -2.300000000000000002e-05 -1.788156930425473592e-03 1.693274702207226432e-04 8.899999999999999491e-05 3.267396103520834802e-03 -6.285461555741994198e-05 -4.199999999999999768e-05 1.606191454228817839e-03 1.606368890498790754e-03 -4.000000000000000327e-05 7.250025784562190228e-05 -1.101541062608343358e-03 6.000000000000000152e-06 -3.002000870568594104e-03 2.790650650662610395e-05 -3.530000000000000152e-04 -1.100068503446497217e-03 5.435791457782249755e-04 8.600000000000000331e-05 -1.859764860650793116e-03 8.364605841602747291e-05 1.099999999999999971e-05 2.896059379631341427e-03 3.521321763902494212e-04 1.039999999999999936e-04 1.629913703463852686e-03 1.644933834310896743e-03 -1.299999999999999920e-05 3.282496094387471019e-04 -9.562783035828585805e-04 -2.169999999999999891e-04 -2.813865835681957691e-03 7.315251593635582793e-04 -6.799999999999999946e-05 -1.071561162870993773e-04 1.496254846856732990e-03 1.800000000000000046e-05 -2.426726799535850864e-03 -1.520074353580931409e-03 4.000000000000000327e-05 3.465035243829320873e-03 1.043656916338259188e-03 3.899999999999999929e-05 2.091991146115820474e-03 1.376282690646444921e-03 -4.029999999999999837e-04 -5.135685725979950060e-04 -7.775714251691982553e-04 -3.269999999999999795e-04 -1.356856347809734607e-03 5.573633028899808474e-04 4.440000000000000045e-04 -1.846011456672221843e-04 1.365674345156395100e-03 -1.820000000000000057e-04 -2.230855275604768078e-03 -6.695742970771619527e-04 -3.399999999999999973e-05 3.228951547415399772e-03 1.095062055065235953e-03 -5.899999999999999754e-05 1.903472296033488541e-03 1.940891088709771010e-03 0.000000000000000000e+00 -4.930062404310954320e-04 -8.549677461144348720e-04 1.099999999999999971e-05 -1.528266456628315150e-03 4.295330459286397524e-04 -5.230000000000000274e-04 -2.001199458944568493e-04 1.337958522247681284e-03 4.119999999999999856e-04 -2.007333875288819756e-03 -8.047600344934942827e-04 -5.500000000000000196e-05 3.568054627124932036e-03 1.043738558189917249e-03 4.399999999999999886e-05 1.666954573072986206e-03 1.915290957351143504e-03 2.640000000000000202e-04 -4.932612082562471464e-04 -8.149560604287737825e-04 3.550000000000000096e-04 -1.340617043019691002e-03 5.700631052481301914e-04 -9.500000000000000523e-05 -6.787791951418231792e-04 -1.109552524327991592e-03 -6.000000000000000152e-06 -8.546661306025285672e-05 -1.044589612265031491e-03 4.899999999999999842e-05 1.380227675420694347e-03 -1.617299106621492553e-04 1.289999999999999914e-04 2.570034224572869536e-03 -2.368988909305663629e-04 -6.260000000000000373e-04 -7.564419095629329503e-04 -5.000006374563775160e-04 -8.399999999999999535e-05 -7.060080133919808230e-04 -1.390094128117340443e-03 -3.100000000000000135e-05 -3.751986037412361852e-04 -1.081200725004671358e-03 3.930000000000000117e-04 6.844797331203195416e-05 -7.284009026281305834e-04 1.769999999999999926e-04 1.672709870995522322e-03 -7.292747681595352456e-04 -4.199999999999999768e-05 2.072335453516488922e-03 5.241915774418977472e-05 2.199999999999999943e-05 -6.542733811166750318e-04 -4.919017612919821371e-04 4.899999999999999842e-05 -8.171405847992530220e-04 -1.073969862088287180e-03 -3.100000000000000135e-05 -4.451549559284312071e-04 -1.131906827089737208e-03 -3.750000000000000078e-04 1.130176095044977411e-04 -6.982256225188881267e-04 -3.600000000000000091e-05 1.394907086294448935e-03 -1.797833711806770044e-05 7.799999999999999859e-05 2.022485939028712508e-03 1.683675337799627717e-04 5.159999999999999656e-04 -7.135052299390853706e-04 -5.038008404613603325e-04 -6.899999999999999667e-05 -7.214580604891268536e-04 -1.467819902765753843e-03 -5.099999999999999960e-05 -9.843106117828754036e-04 1.066514237847588156e-03 -3.999999999999999819e-06 -7.708691193726238547e-04 1.034534098421930042e-03 -4.600000000000000004e-05 7.445278522784841240e-05 1.419859775742596123e-03 1.699999999999999987e-05 1.382124577465314861e-04 6.545397745925477526e-04 -1.320000000000000101e-04 -1.418262866758425770e-04 2.105006010539576134e-03 2.180000000000000134e-04 -8.120296432648914679e-04 3.281780895475706265e-04 3.280000000000000038e-04 -1.072220867180390894e-03 1.072152233585758636e-03 2.500000000000000120e-05 -5.928498519501528962e-04 9.802096985047036286e-04 2.290000000000000098e-04 6.033323957468121005e-04 1.139962727567183157e-03 -1.299999999999999920e-05 3.579723212222058111e-04 3.173890628846336506e-04 -7.299999999999999903e-05 -3.769087332586632780e-04 1.995364579918504615e-03 2.599999999999999840e-05 -1.198211987873152229e-03 -2.687341290515015465e-04 -3.820000000000000153e-04 -1.041946746975680287e-03 1.086590988581627492e-03 9.500000000000000523e-05 -6.780657270171904210e-04 1.076813293865119987e-03 3.800000000000000209e-05 1.449992916913085163e-04 1.448551071039270782e-03 1.019999999999999992e-04 4.062977615070089430e-04 4.955200591241424842e-04 -1.599999999999999928e-05 -1.223640444355113645e-04 2.129647867754052779e-03 -2.259999999999999910e-04 -8.883459189787623568e-04 3.656057004940955839e-04