-1.256006245408369359e+01 -1.800705265929113141e-04 -2.045203626960802063e-03 -1.800705265929113141e-04 -2.949208476714458627e+01 -1.659714258015802457e+01 -2.045203626960802063e-03 -1.659714258015802102e+01 3.867409401206600705e+01
-1.246255991874176772e+01 7.905058470704676155e-02 -9.972191689730615372e-02 7.905058470704676155e-02 -2.929907256808357374e+01 -1.661666754251601930e+01 -9.972191689730615372e-02 -1.661666754251601930e+01 3.883319007447377658e+01
-1.261761490734916613e+01 1.610149751635853999e-01 -2.019928803565163022e-01 1.610149751635853999e-01 -2.936509979935765458e+01 -1.661951945869507696e+01 -2.019928803565163022e-01 -1.661951945869507696e+01 3.868924616370744474e+01
-1.188344596246901297e+01 2.260019695440330934e-01 -3.239058673818895340e-01 2.260019695440330934e-01 -2.861234212173566505e+01 -1.659108966769950655e+01 -3.239058673818895340e-01 -1.659108966769951010e+01 3.953343724921067093e+01
-1.100350991608349993e+01 2.925235850173785179e-01 -4.559888094626143307e-01 2.925235850173785179e-01 -2.775566638271823194e+01 -1.653667782169453915e+01 -4.559888094626143307e-01 -1.653667782169454270e+01 4.038496212624811221e+01
