2.598710000000000075e+00 3.364219999999999988e+00 4.987000000000000099e+00 6.850500000000000478e-01 3.940329999999999888e+00 2.345190000000000108e+00 2.064519999999999911e+00 1.243759999999999977e+00 2.345209999999999795e+00 5.684059999999999668e+00 3.364209999999999923e+00 4.987000000000000099e+00 3.770379999999999843e+00 3.940329999999999888e+00 2.345190000000000108e+00 5.149869999999999948e+00 1.243749999999999911e+00 2.345209999999999795e+00 8.769389999999999574e+00 3.364209999999999923e+00 4.987009999999999721e+00 6.855719999999999814e+00 3.940329999999999888e+00 2.345209999999999795e+00 8.235219999999999985e+00 1.243759999999999977e+00 2.345219999999999860e+00 1.047527999999999970e+01 6.060810000000000031e+00 4.987009999999999721e+00 2.925139999999999851e+00 8.757369999999999877e+00 4.987000000000000099e+00 2.390960000000000196e+00 6.636910000000000309e+00 2.345209999999999795e+00 4.304590000000000138e+00 6.060800000000000409e+00 4.987000000000000099e+00 6.010500000000000398e+00 8.757369999999999877e+00 4.987000000000000099e+00 5.476300000000000168e+00 6.636899999999999800e+00 2.345219999999999860e+00 7.389940000000000175e+00 6.060800000000000409e+00 4.986989999999999590e+00 9.095840000000000813e+00 8.757369999999999877e+00 4.987009999999999721e+00 8.561650000000000205e+00 6.636910000000000309e+00 2.345219999999999860e+00 2.050399999999999778e+00 4.956900000000000084e+00 9.706189999999999429e+00 3.429889999999999883e+00 2.260339999999999794e+00 9.706220000000000070e+00 5.135729999999999684e+00 4.956920000000000215e+00 9.706200000000000827e+00 6.515220000000000233e+00 2.260339999999999794e+00 9.706220000000000070e+00 8.221069999999999212e+00 4.956920000000000215e+00 9.706210000000000448e+00 9.600569999999999382e+00 2.260349999999999859e+00 9.706210000000000448e+00 3.756310000000000038e+00 7.653500000000000192e+00 9.706210000000000448e+00 6.841649999999999565e+00 7.653500000000000192e+00 9.706220000000000070e+00 9.926989999999999981e+00 7.653489999999999682e+00 9.706210000000000448e+00 3.964059999999999917e+00 4.380810000000000315e+00 1.234801000000000037e+01 7.049389999999999823e+00 4.380810000000000315e+00 1.234800000000000075e+01 1.013474000000000075e+01 4.380810000000000315e+00 1.234800000000000075e+01 1.184061999999999948e+01 7.077390000000000292e+00 1.234800000000000075e+01 4.290499999999999758e+00 9.773960000000000647e+00 1.234800000000000075e+01 5.669950000000000045e+00 7.077399999999999913e+00 1.234800000000000075e+01 7.375840000000000174e+00 9.773949999999999250e+00 1.234801000000000037e+01 8.755290000000000461e+00 7.077399999999999913e+00 1.234800000000000075e+01 1.046116999999999919e+01 9.773970000000000269e+00 1.234801000000000037e+01 5.329410000000000203e+00 5.397400000000000198e+00 1.970900999999999925e+01 3.415739999999999998e+00 5.973510000000000097e+00 1.706720999999999933e+01 4.795219999999999594e+00 3.276949999999999807e+00 1.706721999999999895e+01 8.414749999999999730e+00 5.397400000000000198e+00 1.970901999999999887e+01 6.501079999999999970e+00 5.973510000000000097e+00 1.706719999999999970e+01 7.880560000000000009e+00 3.276940000000000186e+00 1.706720999999999933e+01 1.150008000000000052e+01 5.397400000000000198e+00 1.970901999999999887e+01 9.586410000000000764e+00 5.973510000000000097e+00 1.706720999999999933e+01 1.096590999999999916e+01 3.276940000000000186e+00 1.706721999999999895e+01 1.320598000000000027e+01 8.093970000000000553e+00 1.970901999999999887e+01 5.655840000000000423e+00 1.079054000000000002e+01 1.970899999999999963e+01 5.121669999999999945e+00 8.670090000000000074e+00 1.706720999999999933e+01 7.035289999999999822e+00 8.093980000000000175e+00 1.970899999999999963e+01 8.741179999999999950e+00 1.079054999999999964e+01 1.970900999999999925e+01 8.207000000000000739e+00 8.670090000000000074e+00 1.706721999999999895e+01 1.012063000000000024e+01 8.093989999999999796e+00 1.970899999999999963e+01 1.182652000000000037e+01 1.079054999999999964e+01 1.970901999999999887e+01 1.129235000000000078e+01 8.670090000000000074e+00 1.706721999999999895e+01 1.112815999999999939e+01 1.684710000000000107e+01 4.987009999999999721e+00 4.957480000000000331e+00 1.684710000000000107e+01 4.987000000000000099e+00 8.042820000000000746e+00 1.684710000000000107e+01 4.987009999999999721e+00 1.011479999999999935e+00 9.333470000000000155e+00 2.345200000000000173e+00 4.096820000000000128e+00 9.333479999999999777e+00 2.345190000000000108e+00 7.182159999999999656e+00 9.333479999999999777e+00 2.345190000000000108e+00 1.080170999999999992e+01 1.145396000000000036e+01 4.987000000000000099e+00 3.251580000000000137e+00 1.415052000000000021e+01 4.987009999999999721e+00 1.337930000000000064e+00 1.472662000000000049e+01 2.345200000000000173e+00 2.717420000000000169e+00 1.203006000000000064e+01 2.345209999999999795e+00 4.631039999999999601e+00 1.145395000000000074e+01 4.987000000000000099e+00 6.336940000000000239e+00 1.415052000000000021e+01 4.987000000000000099e+00 4.423269999999999591e+00 1.472663000000000011e+01 2.345200000000000173e+00 5.802760000000000140e+00 1.203006000000000064e+01 2.345209999999999795e+00 7.716380000000000017e+00 1.145395000000000074e+01 4.987009999999999721e+00 9.422280000000000655e+00 1.415052000000000021e+01 4.986989999999999590e+00 7.508600000000000385e+00 1.472663000000000011e+01 2.345190000000000108e+00 8.888090000000000046e+00 1.203006000000000064e+01 2.345200000000000173e+00 2.376829999999999998e+00 1.035005999999999915e+01 9.706189999999999429e+00 5.462170000000000414e+00 1.035007000000000055e+01 9.706200000000000827e+00 8.547520000000000451e+00 1.035005999999999915e+01 9.706200000000000827e+00 2.703269999999999840e+00 1.574322000000000088e+01 9.706189999999999429e+00 4.082760000000000389e+00 1.304665999999999926e+01 9.706210000000000448e+00 5.788619999999999877e+00 1.574320999999999948e+01 9.706210000000000448e+00 7.168110000000000426e+00 1.304665999999999926e+01 9.706210000000000448e+00 8.873960000000000292e+00 1.574322000000000088e+01 9.706200000000000827e+00 1.025342999999999982e+01 1.304664999999999964e+01 9.706210000000000448e+00 1.249349999999999916e+01 1.786368999999999829e+01 1.234801000000000037e+01 6.322840000000000238e+00 1.786368999999999829e+01 1.234800000000000075e+01 9.408170000000000144e+00 1.786370000000000147e+01 1.234800000000000075e+01 1.216705999999999932e+01 1.247053999999999974e+01 1.234800000000000075e+01 4.616950000000000109e+00 1.516710999999999920e+01 1.234801000000000037e+01 5.996380000000000265e+00 1.247053999999999974e+01 1.234802000000000000e+01 7.702280000000000015e+00 1.516710999999999920e+01 1.234802000000000000e+01 9.081730000000000302e+00 1.247053999999999974e+01 1.234801000000000037e+01 1.078762000000000043e+01 1.516710999999999920e+01 1.234801000000000037e+01 1.385885999999999996e+01 1.888028999999999868e+01 1.970900999999999925e+01 7.688180000000000014e+00 1.888029999999999831e+01 1.970900999999999925e+01 1.077350999999999992e+01 1.888027999999999906e+01 1.970899999999999963e+01 3.742189999999999905e+00 1.136664999999999992e+01 1.706719999999999970e+01 6.827519999999999811e+00 1.136665999999999954e+01 1.706719000000000008e+01 9.912850000000000605e+00 1.136665999999999954e+01 1.706720999999999933e+01 1.353242000000000012e+01 1.348714000000000013e+01 1.970900999999999925e+01 5.982289999999999885e+00 1.618371000000000137e+01 1.970899999999999963e+01 4.068629999999999747e+00 1.675981000000000165e+01 1.706720999999999933e+01 5.448109999999999786e+00 1.406325000000000003e+01 1.706721999999999895e+01 7.361740000000000173e+00 1.348714000000000013e+01 1.970900999999999925e+01 9.067619999999999791e+00 1.618370000000000175e+01 1.970900999999999925e+01 7.153959999999999653e+00 1.675981000000000165e+01 1.706719999999999970e+01 8.533440000000000580e+00 1.406325000000000003e+01 1.706720999999999933e+01 1.044707000000000008e+01 1.348714999999999975e+01 1.970901999999999887e+01 1.215296000000000021e+01 1.618370000000000175e+01 1.970899999999999963e+01 1.023930000000000007e+01 1.675981000000000165e+01 1.706719999999999970e+01 1.161879000000000062e+01 1.406325000000000003e+01 1.706721999999999895e+01 7.888800000000000257e-01 2.303949999999999942e+00 3.666069999999999940e+00 1.029161000000000037e+01 4.292690000000000339e+00 6.003940000000000055e+00 2.248190000000000133e+00 3.011849999999999916e+00 1.328270000000000062e+00 5.423200000000000243e-01 3.152599999999999847e-01 1.328270000000000062e+00 2.494839999999999947e+00 5.000560000000000116e+00 3.666110000000000202e+00 2.415049999999999919e+00 1.596139999999999892e+00 6.003949999999999676e+00 3.874220000000000219e+00 2.303939999999999877e+00 3.666069999999999940e+00 4.120930000000000426e+00 4.292690000000000339e+00 6.003930000000000433e+00 5.333529999999999660e+00 3.011849999999999916e+00 1.328270000000000062e+00 3.627670000000000172e+00 3.152699999999999947e-01 1.328270000000000062e+00 5.580180000000000362e+00 5.000569999999999737e+00 3.666110000000000202e+00 5.500390000000000335e+00 1.596130000000000049e+00 6.003960000000000186e+00 6.959550000000000125e+00 2.303960000000000008e+00 3.666069999999999940e+00 7.206269999999999953e+00 4.292699999999999960e+00 6.003919999999999924e+00 8.418860000000000454e+00 3.011849999999999916e+00 1.328270000000000062e+00 6.712989999999999569e+00 3.152699999999999947e-01 1.328279999999999905e+00 8.665509999999999380e+00 5.000560000000000116e+00 3.666119999999999823e+00 8.585720000000000240e+00 1.596139999999999892e+00 6.003960000000000186e+00 1.115310000000000024e+00 7.697110000000000340e+00 3.666069999999999940e+00 8.687599999999999767e-01 5.708409999999999762e+00 1.328289999999999971e+00 2.741499999999999826e+00 6.989289999999999559e+00 6.003940000000000055e+00 4.200650000000000439e+00 7.697110000000000340e+00 3.666080000000000005e+00 3.954110000000000014e+00 5.708409999999999762e+00 1.328279999999999905e+00 5.826839999999999797e+00 6.989289999999999559e+00 6.003949999999999676e+00 7.285999999999999588e+00 7.697110000000000340e+00 3.666069999999999940e+00 7.039430000000000298e+00 5.708420000000000272e+00 1.328270000000000062e+00 8.912169999999999703e+00 6.989289999999999559e+00 6.003949999999999676e+00 2.154230000000000089e+00 3.320539999999999825e+00 1.102707999999999977e+01 3.613539999999999974e+00 4.028430000000000177e+00 8.689270000000000493e+00 1.907680000000000042e+00 1.331860000000000044e+00 8.689270000000000493e+00 3.860189999999999788e+00 6.017140000000000377e+00 1.102711000000000041e+01 5.239559999999999995e+00 3.320549999999999891e+00 1.102708999999999939e+01 6.698879999999999946e+00 4.028430000000000177e+00 8.689270000000000493e+00 4.993009999999999948e+00 1.331849999999999978e+00 8.689280000000000115e+00 6.945529999999999760e+00 6.017159999999999620e+00 1.102712000000000003e+01 8.324899999999999523e+00 3.320539999999999825e+00 1.102707000000000015e+01 9.784219999999999473e+00 4.028439999999999799e+00 8.689280000000000115e+00 8.078350000000000364e+00 1.331849999999999978e+00 8.689289999999999736e+00 1.003084999999999916e+01 6.017149999999999999e+00 1.102711000000000041e+01 2.480669999999999931e+00 8.713689999999999714e+00 1.102707999999999977e+01 2.234119999999999884e+00 6.724999999999999645e+00 8.689280000000000115e+00 5.565999999999999837e+00 8.713689999999999714e+00 1.102707999999999977e+01 5.319449999999999790e+00 6.724999999999999645e+00 8.689289999999999736e+00 8.651339999999999364e+00 8.713699999999999335e+00 1.102707999999999977e+01 8.404780000000000584e+00 6.724999999999999645e+00 8.689280000000000115e+00 1.165695000000000014e+01 5.309300000000000352e+00 1.336494000000000071e+01 3.780390000000000139e+00 2.612719999999999931e+00 1.336495000000000033e+01 5.486290000000000333e+00 5.309289999999999843e+00 1.336494000000000071e+01 6.865730000000000111e+00 2.612729999999999997e+00 1.336494000000000071e+01 8.571619999999999351e+00 5.309289999999999843e+00 1.336492999999999931e+01 9.951069999999999638e+00 2.612719999999999931e+00 1.336495999999999995e+01 4.106840000000000046e+00 8.005879999999999441e+00 1.336495999999999995e+01 7.192169999999999952e+00 8.005890000000000839e+00 1.336495999999999995e+01 1.027752000000000088e+01 8.005869999999999820e+00 1.336495999999999995e+01 3.519579999999999931e+00 4.337139999999999773e+00 1.838807999999999865e+01 1.302230999999999916e+01 6.325890000000000235e+00 2.072591999999999857e+01 4.978880000000000194e+00 5.045040000000000191e+00 1.605027000000000115e+01 3.273010000000000197e+00 2.348450000000000149e+00 1.605028000000000077e+01 5.225530000000000008e+00 7.033750000000000391e+00 1.838813000000000031e+01 5.145739999999999981e+00 3.629319999999999879e+00 2.072596000000000060e+01 6.604910000000000281e+00 4.337130000000000152e+00 1.838806999999999903e+01 6.851630000000000109e+00 6.325870000000000104e+00 2.072593000000000174e+01 8.064230000000000231e+00 5.045029999999999681e+00 1.605028000000000077e+01 6.358349999999999724e+00 2.348440000000000083e+00 1.605029000000000039e+01 8.310859999999999914e+00 7.033739999999999881e+00 1.838812000000000069e+01 8.231090000000000018e+00 3.629319999999999879e+00 2.072596000000000060e+01 9.690239999999999299e+00 4.337130000000000152e+00 1.838807999999999865e+01 9.936959999999999127e+00 6.325890000000000235e+00 2.072593000000000174e+01 1.114954999999999963e+01 5.045040000000000191e+00 1.605028000000000077e+01 9.443699999999999761e+00 2.348450000000000149e+00 1.605028000000000077e+01 1.139620999999999995e+01 7.033739999999999881e+00 1.838813000000000031e+01 1.131643000000000043e+01 3.629329999999999945e+00 2.072596000000000060e+01 3.846010000000000151e+00 9.730299999999999727e+00 1.838807999999999865e+01 3.599470000000000169e+00 7.741600000000000037e+00 1.605027000000000115e+01 5.472179999999999822e+00 9.022470000000000212e+00 2.072596000000000060e+01 6.931350000000000122e+00 9.730290000000000106e+00 1.838808999999999827e+01 6.684800000000000075e+00 7.741609999999999658e+00 1.605028000000000077e+01 8.557529999999999859e+00 9.022479999999999833e+00 2.072596000000000060e+01 1.001669000000000054e+01 9.730299999999999727e+00 1.838807999999999865e+01 9.770139999999999603e+00 7.741600000000000037e+00 1.605028000000000077e+01 1.164287000000000027e+01 9.022470000000000212e+00 2.072596000000000060e+01 1.061805000000000021e+01 9.685850000000000293e+00 6.003940000000000055e+00 2.574629999999999974e+00 8.405010000000000758e+00 1.328259999999999996e+00 2.821270000000000167e+00 1.039371000000000045e+01 3.666119999999999823e+00 4.447379999999999889e+00 9.685850000000000293e+00 6.003930000000000433e+00 5.659970000000000390e+00 8.405010000000000758e+00 1.328270000000000062e+00 5.906620000000000203e+00 1.039371000000000045e+01 3.666100000000000136e+00 7.532709999999999795e+00 9.685840000000000671e+00 6.003930000000000433e+00 8.745300000000000296e+00 8.404999999999999361e+00 1.328270000000000062e+00 8.991960000000000619e+00 1.039370000000000083e+01 3.666110000000000202e+00 1.441759999999999931e+00 1.309024999999999928e+01 3.666069999999999940e+00 1.094448000000000043e+01 1.507898999999999923e+01 6.003919999999999924e+00 2.901060000000000194e+00 1.379815999999999931e+01 1.328259999999999996e+00 1.195189999999999975e+00 1.110158000000000023e+01 1.328270000000000062e+00 3.147710000000000008e+00 1.578687000000000040e+01 3.666110000000000202e+00 3.067930000000000046e+00 1.238244000000000078e+01 6.003940000000000055e+00 4.527099999999999902e+00 1.309026000000000067e+01 3.666080000000000005e+00 4.773799999999999599e+00 1.507901000000000025e+01 6.003919999999999924e+00 5.986399999999999721e+00 1.379815999999999931e+01 1.328259999999999996e+00 4.280529999999999724e+00 1.110157000000000060e+01 1.328270000000000062e+00 6.233050000000000423e+00 1.578687000000000040e+01 3.666110000000000202e+00 6.153270000000000017e+00 1.238242999999999938e+01 6.003960000000000186e+00 7.612440000000000317e+00 1.309024999999999928e+01 3.666069999999999940e+00 7.859149999999999636e+00 1.507898999999999923e+01 6.003930000000000433e+00 9.071749999999999758e+00 1.379815999999999931e+01 1.328279999999999905e+00 7.365890000000000271e+00 1.110157000000000060e+01 1.328279999999999905e+00 9.318390000000000839e+00 1.578687000000000040e+01 3.666119999999999823e+00 9.238619999999999166e+00 1.238245000000000040e+01 6.003949999999999676e+00 3.939970000000000194e+00 9.421599999999999753e+00 8.689270000000000493e+00 4.186619999999999564e+00 1.141029999999999944e+01 1.102712000000000003e+01 7.025319999999999787e+00 9.421599999999999753e+00 8.689280000000000115e+00 7.271959999999999980e+00 1.141029999999999944e+01 1.102712000000000003e+01 1.011064999999999969e+01 9.421590000000000131e+00 8.689270000000000493e+00 1.035731000000000002e+01 1.141029999999999944e+01 1.102712000000000003e+01 2.807100000000000151e+00 1.410685999999999929e+01 1.102707000000000015e+01 4.266420000000000101e+00 1.481475000000000009e+01 8.689270000000000493e+00 2.560560000000000169e+00 1.211815999999999960e+01 8.689280000000000115e+00 4.513049999999999784e+00 1.680346000000000117e+01 1.102712000000000003e+01 5.892439999999999678e+00 1.410684000000000005e+01 1.102707000000000015e+01 7.351750000000000007e+00 1.481474000000000046e+01 8.689270000000000493e+00 5.645889999999999631e+00 1.211815999999999960e+01 8.689289999999999736e+00 7.598399999999999821e+00 1.680346000000000117e+01 1.102712000000000003e+01 8.977769999999999584e+00 1.410684999999999967e+01 1.102707000000000015e+01 1.043709999999999916e+01 1.481475000000000009e+01 8.689280000000000115e+00 8.731230000000000047e+00 1.211816999999999922e+01 8.689280000000000115e+00 1.068374000000000024e+01 1.680345000000000155e+01 1.102711000000000041e+01 1.198339999999999961e+01 1.070245000000000068e+01 1.336494000000000071e+01 5.812710000000000043e+00 1.070243999999999929e+01 1.336492999999999931e+01 8.898049999999999571e+00 1.070243999999999929e+01 1.336492999999999931e+01 1.230983999999999945e+01 1.609560000000000102e+01 1.336492999999999931e+01 4.433290000000000397e+00 1.339902999999999977e+01 1.336495000000000033e+01 6.139149999999999885e+00 1.609559000000000140e+01 1.336492999999999931e+01 7.518629999999999924e+00 1.339903999999999940e+01 1.336495999999999995e+01 9.224500000000000810e+00 1.609560000000000102e+01 1.336491999999999969e+01 1.060397000000000034e+01 1.339903999999999940e+01 1.336495000000000033e+01 1.334873999999999938e+01 1.171903999999999968e+01 2.072594000000000136e+01 5.305320000000000036e+00 1.043819000000000052e+01 1.605026000000000153e+01 5.551980000000000359e+00 1.242690999999999946e+01 1.838811000000000107e+01 7.178069999999999951e+00 1.171903000000000006e+01 2.072591999999999857e+01 8.390660000000000451e+00 1.043819000000000052e+01 1.605026000000000153e+01 8.637299999999999756e+00 1.242689000000000021e+01 1.838813000000000031e+01 1.026338999999999935e+01 1.171903999999999968e+01 2.072593000000000174e+01 1.147601000000000049e+01 1.043817999999999913e+01 1.605026000000000153e+01 1.172264999999999979e+01 1.242689999999999984e+01 1.838813000000000031e+01 4.172439999999999927e+00 1.512344000000000044e+01 1.838808999999999827e+01 1.367517999999999923e+01 1.711217999999999861e+01 2.072593000000000174e+01 5.631770000000000387e+00 1.583134000000000086e+01 1.605028000000000077e+01 3.925899999999999945e+00 1.313475000000000037e+01 1.605028000000000077e+01 5.878409999999999691e+00 1.782003999999999877e+01 1.838811000000000107e+01 5.798630000000000173e+00 1.441562000000000054e+01 2.072595000000000098e+01 7.257799999999999585e+00 1.512344000000000044e+01 1.838806999999999903e+01 7.504509999999999792e+00 1.711218999999999824e+01 2.072594000000000136e+01 8.717090000000000671e+00 1.583132999999999946e+01 1.605028000000000077e+01 7.011239999999999917e+00 1.313475000000000037e+01 1.605029000000000039e+01 8.963739999999999597e+00 1.782004999999999839e+01 1.838811000000000107e+01 8.883969999999999700e+00 1.441563000000000017e+01 2.072596000000000060e+01 1.034313000000000038e+01 1.512345000000000006e+01 1.838807999999999865e+01 1.058984000000000059e+01 1.711218999999999824e+01 2.072594000000000136e+01 1.180242999999999931e+01 1.583132999999999946e+01 1.605028000000000077e+01 1.009656999999999982e+01 1.313475999999999999e+01 1.605029000000000039e+01 1.204908999999999963e+01 1.782003999999999877e+01 1.838813000000000031e+01 1.196930000000000049e+01 1.441563000000000017e+01 2.072597000000000023e+01