-2.786279105449999861e+03
-2.786243849789999786e+03
-2.786172217920000094e+03
-2.786064605760000177e+03
-2.785921712169999864e+03
-2.785744389009999850e+03
-2.785533771930000057e+03
-2.785291221179999866e+03
-2.785018350830000145e+03
-2.784716951169999902e+03
