-1.524501000000000106e+00 -6.368209999999999704e-01 -2.976699999999999832e-02 1.524809999999999999e+00 6.362020000000000453e-01 2.959699999999999831e-02 1.524284999999999890e+00 6.366330000000000044e-01 2.921899999999999845e-02 -1.524332999999999938e+00 -6.373029999999999529e-01 -2.912800000000000111e-02 1.524570999999999898e+00 6.352100000000000524e-01 2.947800000000000073e-02 1.524221000000000048e+00 6.365089999999999915e-01 2.991699999999999915e-02 -1.524178000000000033e+00 -6.360360000000000458e-01 -2.978300000000000045e-02 1.523786000000000085e+00 6.365189999999999459e-01 2.977700000000000138e-02 1.523957999999999924e+00 6.369139999999999802e-01 2.980400000000000063e-02 -1.524680000000000035e+00 -6.367439999999999767e-01 -3.026699999999999877e-02 -1.523735000000000062e+00 -6.358019999999999783e-01 -2.962499999999999856e-02 1.523949999999999916e+00 6.361890000000000045e-01 2.988800000000000137e-02 -1.523862000000000050e+00 -6.372320000000000206e-01 -2.968399999999999858e-02 -1.524283999999999972e+00 -6.361170000000000435e-01 -2.964599999999999874e-02 1.524289999999999923e+00 6.367289999999999894e-01 2.923699999999999910e-02 -1.523692999999999964e+00 -6.367369999999999974e-01 -3.049999999999999933e-02 -1.523749000000000020e+00 -6.364400000000000057e-01 -2.976900000000000032e-02 1.524062999999999946e+00 6.363790000000000280e-01 2.973400000000000001e-02 1.524655000000000094e+00 6.369350000000000289e-01 2.998999999999999930e-02 1.524148000000000058e+00 6.364149999999999530e-01 2.940500000000000058e-02 1.524710000000000010e+00 6.355790000000000051e-01 2.990200000000000150e-02 1.524073000000000011e+00 6.365809999999999524e-01 2.982100000000000029e-02 1.523694000000000104e+00 6.367249999999999854e-01 3.011199999999999988e-02 1.524014999999999898e+00 6.367340000000000222e-01 3.007400000000000004e-02 1.524014999999999898e+00 6.365899999999999892e-01 3.024100000000000052e-02 1.524297999999999931e+00 6.370320000000000427e-01 2.956800000000000053e-02 1.524286000000000030e+00 6.368890000000000384e-01 3.011000000000000135e-02 -1.524407000000000068e+00 -6.361999999999999877e-01 -2.935199999999999962e-02 -1.524213999999999958e+00 -6.368669999999999609e-01 -2.881200000000000080e-02 -1.524119999999999919e+00 -6.359529999999999905e-01 -2.917499999999999954e-02 -1.524583999999999939e+00 -6.363649999999999585e-01 -2.994600000000000040e-02 -1.523991000000000096e+00 -6.359479999999999578e-01 -2.954700000000000035e-02 -1.524102999999999986e+00 -6.370930000000000204e-01 -2.923100000000000004e-02 -1.524273999999999907e+00 -6.360789999999999500e-01 -2.959399999999999878e-02 -1.523560999999999943e+00 -6.366140000000000132e-01 -3.012400000000000147e-02 -1.523516000000000092e+00 -6.367589999999999639e-01 -2.954299999999999982e-02 -1.524321000000000037e+00 -6.362649999999999695e-01 -2.943499999999999936e-02 1.524842000000000031e+00 6.366619999999999502e-01 2.959000000000000172e-02 1.524175999999999975e+00 6.367570000000000174e-01 2.947999999999999926e-02 -1.524383000000000044e+00 -6.371839999999999726e-01 -2.891600000000000073e-02 1.524588999999999972e+00 6.358660000000000423e-01 2.966600000000000140e-02 1.524232000000000031e+00 6.367080000000000517e-01 3.009699999999999875e-02 -1.524057999999999913e+00 -6.358289999999999775e-01 -2.946000000000000008e-02 1.523789000000000060e+00 6.369430000000000369e-01 2.999699999999999936e-02 1.524059000000000053e+00 6.371879999999999766e-01 3.000799999999999995e-02 -1.524696000000000051e+00 -6.365319999999999867e-01 -3.033599999999999838e-02 -1.523937000000000097e+00 -6.359780000000000433e-01 -2.962300000000000003e-02 1.523821000000000092e+00 6.364539999999999642e-01 2.994099999999999887e-02 -1.523902000000000090e+00 -6.373670000000000169e-01 -2.942799999999999930e-02 -1.524127000000000010e+00 -6.364319999999999977e-01 -2.966399999999999940e-02 1.524420000000000108e+00 6.365459999999999452e-01 2.922900000000000151e-02 -1.523506999999999945e+00 -6.369409999999999794e-01 -3.034900000000000098e-02 -1.523573000000000066e+00 -6.366209999999999924e-01 -2.981800000000000075e-02 1.524089000000000027e+00 6.364689999999999515e-01 2.977899999999999991e-02 -1.524237000000000064e+00 -6.367329999999999934e-01 -2.957299999999999859e-02 -1.523600000000000065e+00 -6.368420000000000192e-01 -2.966699999999999893e-02 -1.523887999999999909e+00 -6.363809999999999745e-01 -2.967799999999999952e-02 1.524534000000000056e+00 6.368380000000000152e-01 2.998699999999999977e-02 1.524429000000000034e+00 6.370839999999999836e-01 3.014400000000000066e-02 1.524391000000000052e+00 6.367939999999999712e-01 2.959300000000000125e-02 -1.524256999999999973e+00 -6.372079999999999966e-01 -2.878100000000000103e-02 -1.523667000000000105e+00 -6.365910000000000180e-01 -3.047000000000000056e-02 1.524437999999999960e+00 6.367920000000000247e-01 2.939200000000000146e-02 1.523271000000000042e+00 6.369609999999999994e-01 3.022199999999999886e-02 -1.524167999999999967e+00 -6.359500000000000153e-01 -2.943600000000000036e-02 -1.524896000000000029e+00 -6.363250000000000295e-01 -3.014800000000000119e-02 1.524354999999999905e+00 6.367220000000000102e-01 2.975900000000000073e-02 1.524413999999999936e+00 6.368759999999999977e-01 2.970499999999999877e-02 -1.524235000000000007e+00 -6.362529999999999575e-01 -2.942399999999999877e-02 -1.524181999999999926e+00 -6.371269999999999989e-01 -2.946999999999999967e-02 1.524080000000000101e+00 6.364239999999999897e-01 3.009399999999999922e-02 1.524240000000000039e+00 6.358380000000000143e-01 2.989199999999999843e-02 1.524569999999999981e+00 6.368099999999999872e-01 3.023899999999999852e-02 1.524496999999999991e+00 6.370740000000000292e-01 3.007699999999999957e-02 1.524250000000000105e+00 6.370890000000000164e-01 2.954999999999999988e-02 1.524669000000000052e+00 6.361419999999999852e-01 2.929700000000000013e-02 1.523500999999999994e+00 6.367110000000000269e-01 3.009600000000000122e-02 1.524240000000000039e+00 6.364589999999999970e-01 2.965200000000000127e-02 1.524626999999999954e+00 6.363450000000000495e-01 2.967900000000000052e-02 1.524091000000000085e+00 6.358150000000000190e-01 2.986000000000000112e-02 1.524475000000000025e+00 6.356270000000000531e-01 2.953400000000000122e-02 -1.524148000000000058e+00 -6.362900000000000222e-01 -2.953000000000000069e-02 -1.523843999999999976e+00 -6.367040000000000477e-01 -2.950799999999999951e-02 -1.523724999999999996e+00 -6.361630000000000340e-01 -2.967200000000000046e-02 -1.524211999999999900e+00 -6.374239999999999906e-01 -2.908200000000000021e-02 -1.523778999999999995e+00 -6.367680000000000007e-01 -3.077099999999999974e-02 -1.523991000000000096e+00 -6.363569999999999505e-01 -2.975200000000000067e-02 -1.524648000000000003e+00 -6.364889999999999715e-01 -3.057299999999999948e-02 -1.524489999999999901e+00 -6.367070000000000229e-01 -2.964899999999999827e-02 -1.524137000000000075e+00 -6.372370000000000534e-01 -3.000600000000000142e-02 -1.524143999999999943e+00 -6.364579999999999682e-01 -2.924799999999999969e-02 -1.523611000000000049e+00 -6.365910000000000180e-01 -2.937899999999999887e-02 -1.523654000000000064e+00 -6.358519999999999728e-01 -2.927599999999999994e-02 1.524421000000000026e+00 6.365210000000000035e-01 2.993699999999999833e-02 1.524299000000000071e+00 6.367080000000000517e-01 2.996800000000000158e-02 1.524515999999999982e+00 6.363750000000000240e-01 2.920999999999999985e-02 -1.524458000000000091e+00 -6.372949999999999449e-01 -2.891200000000000020e-02 -1.523647999999999891e+00 -6.365520000000000067e-01 -3.022700000000000040e-02 1.524453000000000058e+00 6.367180000000000062e-01 2.942099999999999924e-02 1.523490999999999929e+00 6.366359999999999797e-01 3.007699999999999957e-02 -1.524075000000000069e+00 -6.361019999999999452e-01 -2.958600000000000119e-02 -1.524694999999999911e+00 -6.361289999999999445e-01 -3.020400000000000168e-02 1.524456000000000033e+00 6.366009999999999724e-01 3.016999999999999890e-02 1.524564000000000030e+00 6.365349999999999620e-01 2.999100000000000030e-02 -1.524237000000000064e+00 -6.365229999999999499e-01 -2.962400000000000103e-02 -1.524035999999999946e+00 -6.368660000000000432e-01 -2.932200000000000084e-02 1.523967999999999989e+00 6.364330000000000265e-01 3.011700000000000141e-02 1.524230999999999892e+00 6.354549999999999921e-01 2.972999999999999948e-02 -7.299999999999999903e-05 1.173999999999999913e-03 1.969999999999999909e-04 6.033389999999999587e-01 -2.194659999999999944e-01 6.124399999999999983e-02 -6.031400000000000095e-01 2.212250000000000050e-01 -5.987599999999999867e-02 -6.031170000000000142e-01 2.215330000000000077e-01 -5.955599999999999783e-02 -2.210000000000000050e-04 2.799999999999999958e-05 -3.119999999999999944e-04 6.035829999999999806e-01 -2.190300000000000025e-01 5.975899999999999962e-02 2.460000000000000164e-04 1.159000000000000091e-03 -1.669999999999999935e-04 6.037850000000000161e-01 -2.199240000000000084e-01 6.094299999999999717e-02 -6.032220000000000359e-01 2.209790000000000088e-01 -6.015899999999999720e-02 -6.037820000000000409e-01 2.210850000000000037e-01 -6.004400000000000015e-02 5.500000000000000196e-05 -1.959999999999999937e-04 -7.799999999999999859e-05 6.034140000000000059e-01 -2.191770000000000107e-01 6.019399999999999751e-02 -2.199999999999999943e-05 6.359999999999999551e-04 3.829999999999999854e-04 6.035460000000000269e-01 -2.197399999999999909e-01 6.099500000000000061e-02 -6.033610000000000362e-01 2.208420000000000105e-01 -5.953599999999999864e-02 -6.034880000000000244e-01 2.209740000000000038e-01 -5.972299999999999831e-02 -2.610000000000000015e-04 -1.559999999999999972e-04 -6.300000000000000261e-04 6.033020000000000049e-01 -2.191500000000000115e-01 6.000799999999999884e-02 8.180000000000000422e-04 -7.659999999999999708e-04 -5.450000000000000200e-04 -6.032009999999999872e-01 2.200610000000000066e-01 -6.059900000000000009e-02 6.027639999999999665e-01 -2.209250000000000103e-01 6.012399999999999689e-02 2.930000000000000204e-04 -1.049000000000000019e-03 -7.479999999999999670e-04 -6.034629999999999717e-01 2.201529999999999876e-01 -6.031600000000000156e-02 6.033610000000000362e-01 -2.213040000000000007e-01 6.076999999999999763e-02 6.299999999999999990e-05 -5.739999999999999660e-04 -3.519999999999999908e-04 -6.027639999999999665e-01 2.197860000000000091e-01 -5.967100000000000182e-02 6.036169999999999591e-01 -2.209909999999999930e-01 6.040999999999999842e-02 5.199999999999999680e-05 2.880000000000000073e-04 3.809999999999999910e-04 -6.031739999999999879e-01 2.201140000000000041e-01 -6.077199999999999963e-02 -6.033460000000000489e-01 2.209990000000000010e-01 -5.991300000000000098e-02 5.099999999999999960e-05 -1.269999999999999970e-04 -2.400000000000000061e-05 7.079999999999999705e-04 1.399999999999999877e-04 -6.449999999999999570e-04 -6.032100000000000239e-01 2.197620000000000129e-01 -6.102400000000000185e-02 -6.034699999999999509e-01 2.206629999999999980e-01 -6.029500000000000137e-02 1.389999999999999905e-04 -6.170000000000000354e-04 -2.390000000000000089e-04 1.800000000000000113e-04 -5.300000000000000078e-05 -2.180000000000000134e-04 -6.037810000000000121e-01 2.198400000000000076e-01 -6.094800000000000217e-02 -6.038959999999999884e-01 2.207230000000000025e-01 -6.025099999999999900e-02 1.399999999999999877e-04 -4.989999999999999861e-04 -6.870000000000000022e-04 8.880000000000000089e-04 -2.570000000000000127e-04 1.359999999999999989e-04 -6.036709999999999576e-01 2.190940000000000110e-01 -6.115400000000000003e-02 3.690000000000000246e-04 -3.040000000000000167e-04 -3.699999999999999811e-05 -6.036550000000000527e-01 2.193799999999999917e-01 -6.117199999999999721e-02 4.670000000000000214e-04 1.800000000000000046e-05 -3.199999999999999855e-05 -6.031109999999999527e-01 2.187020000000000075e-01 -6.109200000000000047e-02 6.031210000000000182e-01 -2.207500000000000018e-01 6.084500000000000325e-02 6.032319999999999904e-01 -2.201230000000000131e-01 6.041099999999999942e-02 6.029029999999999667e-01 -2.209399999999999975e-01 6.089699999999999974e-02 6.030159999999999965e-01 -2.204069999999999918e-01 6.065899999999999764e-02 6.032739999999999769e-01 -2.206629999999999980e-01 6.063299999999999940e-02 6.028299999999999770e-01 -2.201529999999999876e-01 6.016400000000000220e-02 6.026019999999999710e-01 -2.204129999999999978e-01 6.009099999999999858e-02 6.028940000000000410e-01 -2.208170000000000133e-01 6.078200000000000269e-02 6.031769999999999632e-01 -2.202349999999999863e-01 6.021399999999999669e-02 3.199999999999999855e-05 5.419999999999999471e-04 -6.220000000000000485e-04 6.031469999999999887e-01 -2.198839999999999961e-01 6.064599999999999852e-02 -6.031859999999999999e-01 2.199220000000000064e-01 -5.998300000000000159e-02 -6.031290000000000262e-01 2.209639999999999938e-01 -6.022899999999999782e-02 1.420000000000000092e-04 -1.399999999999999979e-05 -8.069999999999999916e-04 6.032980000000000009e-01 -2.200120000000000131e-01 5.888299999999999784e-02 4.270000000000000249e-04 5.270000000000000162e-04 -8.080000000000000160e-04 6.029919999999999725e-01 -2.200570000000000026e-01 6.059699999999999809e-02 -6.033199999999999674e-01 2.196589999999999931e-01 -6.028599999999999931e-02 -6.034699999999999509e-01 2.206180000000000085e-01 -6.066300000000000164e-02 6.799999999999999946e-05 6.000000000000000152e-06 -4.550000000000000008e-04 6.027179999999999760e-01 -2.200370000000000104e-01 5.913100000000000300e-02 2.139999999999999975e-04 1.659999999999999963e-04 -5.119999999999999768e-04 6.030400000000000205e-01 -2.198350000000000026e-01 6.038299999999999917e-02 -6.034760000000000124e-01 2.195779999999999954e-01 -5.998300000000000159e-02 -6.036930000000000351e-01 2.204579999999999873e-01 -6.031899999999999762e-02 -1.849999999999999973e-04 7.700000000000000139e-05 -1.139999999999999954e-03 6.027249999999999552e-01 -2.200169999999999904e-01 5.886799999999999672e-02 9.300000000000000541e-04 -3.649999999999999816e-04 -7.349999999999999763e-04 -6.036489999999999911e-01 2.196710000000000051e-01 -6.014800000000000008e-02 6.024920000000000275e-01 -2.204649999999999943e-01 6.021599999999999869e-02 5.500000000000000196e-05 -4.209999999999999875e-04 -1.044999999999999922e-03 -6.037130000000000551e-01 2.198239999999999916e-01 -5.985100000000000142e-02 6.025700000000000500e-01 -2.209849999999999870e-01 6.071399999999999714e-02 2.950000000000000148e-04 8.399999999999999535e-05 -5.980000000000000072e-04 -6.031940000000000079e-01 2.194180000000000019e-01 -5.956800000000000289e-02 6.028860000000000330e-01 -2.203009999999999968e-01 6.032900000000000068e-02 6.034920000000000284e-01 -2.211150000000000060e-01 6.002199999999999896e-02 -6.037630000000000496e-01 2.193309999999999982e-01 -6.022700000000000276e-02 -3.110000000000000243e-04 -1.080999999999999930e-03 -9.510000000000000224e-04 6.035380000000000189e-01 -2.212860000000000105e-01 6.004000000000000309e-02 -6.031140000000000390e-01 2.197939999999999894e-01 -6.039499999999999730e-02 -3.600000000000000227e-04 -8.279999999999999600e-04 -4.079999999999999968e-04 6.039499999999999869e-01 -2.210020000000000040e-01 6.003100000000000103e-02 -6.033180000000000209e-01 2.193469999999999864e-01 -6.069200000000000289e-02 -1.140000000000000063e-04 -7.039999999999999817e-04 -8.850000000000000444e-04 4.420000000000000101e-04 1.459999999999999981e-04 -8.100000000000000375e-05 6.037000000000000144e-01 -2.190209999999999935e-01 6.085200000000000331e-02 -6.029780000000000140e-01 2.198199999999999876e-01 -6.008999999999999758e-02 -6.029839999999999645e-01 2.193559999999999954e-01 -6.046699999999999992e-02 -3.020000000000000223e-04 1.613999999999999983e-03 -5.159999999999999656e-04 6.030419999999999670e-01 -2.200030000000000041e-01 5.978900000000000187e-02 2.750000000000000166e-04 8.299999999999999815e-05 -7.190000000000000210e-04 6.040069999999999606e-01 -2.185130000000000128e-01 6.022500000000000075e-02 -6.033129999999999882e-01 2.198070000000000024e-01 -6.033899999999999680e-02 -6.031239999999999934e-01 2.195870000000000044e-01 -6.022799999999999682e-02 2.840000000000000185e-04 1.147000000000000016e-03 -5.569999999999999864e-04 6.038249999999999451e-01 -2.198880000000000001e-01 5.971599999999999825e-02 4.859999999999999954e-04 2.680000000000000090e-04 -1.500000000000000038e-05 6.034460000000000379e-01 -2.185050000000000048e-01 5.965899999999999676e-02 -6.034829999999999917e-01 2.200380000000000114e-01 -6.060800000000000215e-02 -6.029539999999999900e-01 2.197860000000000091e-01 -6.070899999999999908e-02 -3.570000000000000040e-04 1.031999999999999931e-03 -6.570000000000000319e-04 6.032619999999999649e-01 -2.205930000000000113e-01 6.011799999999999783e-02 -6.037620000000000209e-01 2.186790000000000123e-01 -6.008299999999999752e-02 -3.919999999999999873e-04 -3.690000000000000246e-04 5.050000000000000235e-04 -6.033690000000000442e-01 2.193879999999999997e-01 -6.010299999999999671e-02 -2.509999999999999753e-04 -1.000000000000000048e-04 4.640000000000000027e-04 -6.037810000000000121e-01 2.191079999999999972e-01 -6.008700000000000152e-02 -2.900000000000000017e-05 6.999999999999999895e-06 -1.689999999999999879e-04 5.749999999999999903e-04 4.739999999999999747e-04 2.759999999999999867e-04 -6.034559999999999924e-01 2.207620000000000138e-01 -5.944900000000000184e-02 -6.038310000000000066e-01 2.200330000000000064e-01 -5.953300000000000258e-02 -1.699999999999999987e-05 8.930000000000000221e-04 -7.060000000000000303e-04 2.180000000000000134e-04 7.969999999999999654e-04 2.999999999999999737e-04 -6.034479999999999844e-01 2.208479999999999888e-01 -5.969700000000000006e-02 -6.036610000000000031e-01 2.197510000000000019e-01 -5.903800000000000020e-02 1.920000000000000049e-04 5.590000000000000351e-04 -6.419999999999999925e-04 4.929999999999999487e-04 7.720000000000000083e-04 1.359999999999999989e-04 -6.039149999999999796e-01 2.206500000000000128e-01 -5.986600000000000255e-02 -6.031699999999999839e-01 2.200270000000000004e-01 -5.954099999999999671e-02 -3.029999999999999924e-04 6.939999999999999555e-04 -6.549999999999999833e-04 6.031600000000000295e-01 -2.204119999999999968e-01 6.100200000000000067e-02 6.031959999999999544e-01 -2.202119999999999911e-01 6.118599999999999733e-02 6.035139999999999949e-01 -2.200459999999999916e-01 6.075699999999999851e-02 6.032269999999999577e-01 -2.199149999999999994e-01 6.134499999999999675e-02 6.028689999999999882e-01 -2.199969999999999981e-01 6.074100000000000332e-02 6.035239999999999494e-01 -2.193910000000000027e-01 6.099199999999999761e-02 6.028489999999999682e-01 -2.199679999999999969e-01 6.090000000000000274e-02 6.027080000000000215e-01 -2.195320000000000049e-01 6.088899999999999868e-02 6.029769999999999852e-01 -2.204139999999999988e-01 6.109200000000000047e-02 6.029449999999999532e-01 -2.208469999999999878e-01 6.107699999999999935e-02 -6.038200000000000234e-01 2.196790000000000131e-01 -6.001599999999999990e-02 -7.429999999999999539e-04 -8.599999999999999789e-04 -6.049999999999999606e-04 6.029409999999999492e-01 -2.206670000000000020e-01 6.131299999999999945e-02 -6.032980000000000009e-01 2.201259999999999883e-01 -5.949499999999999927e-02 -1.849999999999999973e-04 -9.500000000000000523e-05 -7.230000000000000098e-04 6.035369999999999902e-01 -2.205469999999999930e-01 6.096300000000000330e-02 -6.036559999999999704e-01 2.197989999999999944e-01 -6.000300000000000078e-02 -9.100000000000000287e-05 -4.690000000000000158e-04 -1.002999999999999985e-03 7.380000000000000492e-04 6.000000000000000152e-06 -8.199999999999999824e-04 6.031020000000000270e-01 -2.201909999999999978e-01 5.983200000000000324e-02 -6.031020000000000270e-01 2.199129999999999974e-01 -6.053200000000000247e-02 -6.032260000000000399e-01 2.200120000000000131e-01 -6.028499999999999831e-02 -2.669999999999999847e-04 1.000000000000000021e-03 -1.278000000000000056e-03 6.028580000000000050e-01 -2.204490000000000061e-01 6.013199999999999795e-02 2.420000000000000005e-04 1.379999999999999933e-04 -9.039999999999999642e-04 6.033699999999999619e-01 -2.199570000000000136e-01 5.934199999999999892e-02 -6.033260000000000289e-01 2.204240000000000088e-01 -6.086300000000000043e-02 -6.037059999999999649e-01 2.199750000000000039e-01 -6.005900000000000127e-02 3.989999999999999949e-04 3.680000000000000003e-04 -1.309000000000000051e-03 6.030320000000000125e-01 -2.207099999999999895e-01 6.042899999999999661e-02 5.230000000000000274e-04 -1.099999999999999971e-05 -4.499999999999999877e-04 6.029600000000000515e-01 -2.201519999999999866e-01 5.901700000000000002e-02 -6.033269999999999467e-01 2.205959999999999865e-01 -6.068300000000000083e-02 -6.030459999999999710e-01 2.202010000000000078e-01 -6.015899999999999720e-02 -2.739999999999999923e-04 4.640000000000000027e-04 -1.673000000000000008e-03 6.029020000000000490e-01 -2.212159999999999960e-01 6.037399999999999711e-02