9.344584274239295496e+00 0.000000000000000000e+00 7.086958550161084562e-17 0.000000000000000000e+00 1.613291630999999882e+01 0.000000000000000000e+00 1.741771202925440631e+00 0.000000000000000000e+00 2.159738549386125683e+01
9.344584274239295496e+00 0.000000000000000000e+00 7.086958550161084562e-17 0.000000000000000000e+00 1.613291630999999882e+01 0.000000000000000000e+00 1.741771202925440631e+00 0.000000000000000000e+00 2.159738549386125683e+01
9.344584274239295496e+00 0.000000000000000000e+00 7.086958550161084562e-17 0.000000000000000000e+00 1.613291630999999882e+01 0.000000000000000000e+00 1.741771202925440631e+00 0.000000000000000000e+00 2.159738549386125683e+01
9.344584274239295496e+00 0.000000000000000000e+00 7.086958550161084562e-17 0.000000000000000000e+00 1.613291630999999882e+01 0.000000000000000000e+00 1.741771202925440631e+00 0.000000000000000000e+00 2.159738549386125683e+01
9.344584274239295496e+00 0.000000000000000000e+00 7.086958550161084562e-17 0.000000000000000000e+00 1.613291630999999882e+01 0.000000000000000000e+00 1.741771202925440631e+00 0.000000000000000000e+00 2.159738549386125683e+01
