9.651498785843354966e+00 1.350000000000000071e-03 4.862076214886413617e+00 1.864337942378105906e+00 2.690170000000000172e+00 4.862077462598612954e+00 2.716519013215326628e-01 3.583660000000000068e+00 2.308884955104605119e+00 1.829082398032317647e+00 8.948399999999999688e-01 2.308888853389947204e+00 3.421768439088891167e+00 1.350000000000000071e-03 4.862081360883954595e+00 4.979198131936423799e+00 2.690170000000000172e+00 4.862075291531468224e+00 3.386512090879850945e+00 3.583660000000000068e+00 2.308882784037460834e+00 4.943942587590636428e+00 8.948399999999999688e-01 2.308886682322802475e+00 6.536638596285038183e+00 1.350000000000000071e-03 4.862078385953558346e+00 8.094069092995823667e+00 2.690170000000000172e+00 4.862082284238899987e+00 6.501372280438169504e+00 3.583660000000000068e+00 2.308880612970316104e+00 8.058802777148954988e+00 8.948399999999999688e-01 2.308884511255657745e+00 9.651498785843354966e+00 5.378989999999999938e+00 4.862076214886413617e+00 1.864337942378105906e+00 8.067809999999999704e+00 4.862077462598612954e+00 2.716519013215326628e-01 8.961299999999999599e+00 2.308884955104605119e+00 1.829082398032317647e+00 6.272479999999999833e+00 2.308888853389947204e+00 3.421768439088891167e+00 5.378989999999999938e+00 4.862081360883954595e+00 4.979198131936423799e+00 8.067809999999999704e+00 4.862075291531468224e+00 3.386512090879850945e+00 8.961299999999999599e+00 2.308882784037460834e+00 4.943942587590636428e+00 6.272479999999999833e+00 2.308886682322802475e+00 6.536638596285038183e+00 5.378989999999999938e+00 4.862078385953558346e+00 8.094069092995823667e+00 8.067809999999999704e+00 4.862082284238899987e+00 6.501372280438169504e+00 8.961299999999999599e+00 2.308880612970316104e+00 8.058802777148954988e+00 6.272479999999999833e+00 2.308884511255657745e+00 9.651498785843354966e+00 1.075662999999999947e+01 4.862076214886413617e+00 1.864337942378105906e+00 1.344544999999999924e+01 4.862077462598612954e+00 2.716519013215326628e-01 1.433893999999999913e+01 2.308884955104605119e+00 1.829082398032317647e+00 1.165011999999999937e+01 2.308888853389947204e+00 3.421768439088891167e+00 1.075662999999999947e+01 4.862081360883954595e+00 4.979198131936423799e+00 1.344544999999999924e+01 4.862075291531468224e+00 3.386512090879850945e+00 1.433893999999999913e+01 2.308882784037460834e+00 4.943942587590636428e+00 1.165011999999999937e+01 2.308886682322802475e+00 6.536638596285038183e+00 1.075662999999999947e+01 4.862078385953558346e+00 8.094069092995823667e+00 1.344544999999999924e+01 4.862082284238899987e+00 6.501372280438169504e+00 1.433893999999999913e+01 2.308880612970316104e+00 8.058802777148954988e+00 1.165011999999999937e+01 2.308884511255657745e+00 1.023208901934699000e+01 1.350000000000000071e-03 1.206120263624895195e+01 2.444928175881742050e+00 2.690170000000000172e+00 1.206120388396115217e+01 8.522421348251688622e-01 3.583660000000000068e+00 9.508011376467143450e+00 2.409672631535953791e+00 8.948399999999999688e-01 9.508015274752485979e+00 4.002358672592526645e+00 1.350000000000000071e-03 1.206120778224649293e+01 5.559788365440059721e+00 2.690170000000000172e+00 1.206120171289400567e+01 3.967102324383486867e+00 3.583660000000000068e+00 9.508009205399998720e+00 5.524532821094273238e+00 8.948399999999999688e-01 9.508013103685341250e+00 7.117228829788674105e+00 1.350000000000000071e-03 1.206120480731609845e+01 8.674659326499458700e+00 2.690170000000000172e+00 1.206120870560143921e+01 7.081963317805056946e+00 3.583660000000000068e+00 9.508017001970683779e+00 8.639393010652590021e+00 8.948399999999999688e-01 9.508010932618196520e+00 1.023208901934699000e+01 5.378989999999999938e+00 1.206120263624895195e+01 2.444928175881742050e+00 8.067809999999999704e+00 1.206120388396115217e+01 8.522421348251688622e-01 8.961299999999999599e+00 9.508011376467143450e+00 2.409672631535953791e+00 6.272479999999999833e+00 9.508015274752485979e+00 4.002358672592526645e+00 5.378989999999999938e+00 1.206120778224649293e+01 5.559788365440059721e+00 8.067809999999999704e+00 1.206120171289400567e+01 3.967102324383486867e+00 8.961299999999999599e+00 9.508009205399998720e+00 5.524532821094273238e+00 6.272479999999999833e+00 9.508013103685341250e+00 7.117228829788674105e+00 5.378989999999999938e+00 1.206120480731609845e+01 8.674659326499458700e+00 8.067809999999999704e+00 1.206120870560143921e+01 7.081963317805056946e+00 8.961299999999999599e+00 9.508017001970683779e+00 8.639393010652590021e+00 6.272479999999999833e+00 9.508010932618196520e+00 1.023208901934699000e+01 1.075662999999999947e+01 1.206120263624895195e+01 2.444928175881742050e+00 1.344544999999999924e+01 1.206120388396115217e+01 8.522421348251688622e-01 1.433893999999999913e+01 9.508011376467143450e+00 2.409672631535953791e+00 1.165011999999999937e+01 9.508015274752485979e+00 4.002358672592526645e+00 1.075662999999999947e+01 1.206120778224649293e+01 5.559788365440059721e+00 1.344544999999999924e+01 1.206120171289400567e+01 3.967102324383486867e+00 1.433893999999999913e+01 9.508009205399998720e+00 5.524532821094273238e+00 1.165011999999999937e+01 9.508013103685341250e+00 7.117228829788674105e+00 1.075662999999999947e+01 1.206120480731609845e+01 8.674659326499458700e+00 1.344544999999999924e+01 1.206120870560143921e+01 7.081963317805056946e+00 1.433893999999999913e+01 9.508017001970683779e+00 8.639393010652590021e+00 1.165011999999999937e+01 9.508010932618196520e+00 1.081267925285062681e+01 1.350000000000000071e-03 1.926032905761149294e+01 3.025518409385378416e+00 2.690170000000000172e+00 1.926033030532369139e+01 1.432832368328804895e+00 3.583660000000000068e+00 1.670713779782968089e+01 2.990262865039590157e+00 8.948399999999999688e-01 1.670714169611502697e+01 4.582948906096163455e+00 1.350000000000000071e-03 1.926033420360903392e+01 6.140379402806948050e+00 2.690170000000000172e+00 1.926033810189437290e+01 4.547693361750374308e+00 3.583660000000000068e+00 1.670714559440036595e+01 6.105123054597909160e+00 8.948399999999999688e-01 1.670713952504788224e+01 7.697819063292310027e+00 1.350000000000000071e-03 1.926033122867863767e+01 9.255249560003095510e+00 2.690170000000000172e+00 1.926033512696397665e+01 7.662553551308692867e+00 3.583660000000000068e+00 1.670714342333322122e+01 9.219983244156226831e+00 8.948399999999999688e-01 1.670713735398073396e+01 1.081267925285062681e+01 5.378989999999999938e+00 1.926032905761149294e+01 3.025518409385378416e+00 8.067809999999999704e+00 1.926033030532369139e+01 1.432832368328804895e+00 8.961299999999999599e+00 1.670713779782968089e+01 2.990262865039590157e+00 6.272479999999999833e+00 1.670714169611502697e+01 4.582948906096163455e+00 5.378989999999999938e+00 1.926033420360903392e+01 6.140379402806948050e+00 8.067809999999999704e+00 1.926033810189437290e+01 4.547693361750374308e+00 8.961299999999999599e+00 1.670714559440036595e+01 6.105123054597909160e+00 6.272479999999999833e+00 1.670713952504788224e+01 7.697819063292310027e+00 5.378989999999999938e+00 1.926033122867863767e+01 9.255249560003095510e+00 8.067809999999999704e+00 1.926033512696397665e+01 7.662553551308692867e+00 8.961299999999999599e+00 1.670714342333322122e+01 9.219983244156226831e+00 6.272479999999999833e+00 1.670713735398073396e+01 1.081267925285062681e+01 1.075662999999999947e+01 1.926032905761149294e+01 3.025518409385378416e+00 1.344544999999999924e+01 1.926033030532369139e+01 1.432832368328804895e+00 1.433893999999999913e+01 1.670713779782968089e+01 2.990262865039590157e+00 1.165011999999999937e+01 1.670714169611502697e+01 4.582948906096163455e+00 1.075662999999999947e+01 1.926033420360903392e+01 6.140379402806948050e+00 1.344544999999999924e+01 1.926033810189437290e+01 4.547693361750374308e+00 1.433893999999999913e+01 1.670714559440036595e+01 6.105123054597909160e+00 1.165011999999999937e+01 1.670713952504788224e+01 7.697819063292310027e+00 1.075662999999999947e+01 1.926033122867863767e+01 9.255249560003095510e+00 1.344544999999999924e+01 1.926033512696397665e+01 7.662553551308692867e+00 1.433893999999999913e+01 1.670714342333322122e+01 9.219983244156226831e+00 1.165011999999999937e+01 1.670713735398073396e+01 2.893012164965864108e-01 1.792510000000000048e+00 3.585497587258091645e+00 9.664179055833017173e+00 3.591920000000000002e+00 5.906025340683734193e+00 1.816411291817232598e+00 2.681880000000000042e+00 1.264928956091547096e+00 2.589815989696992449e-01 5.370700000000000252e+00 1.264935025444033689e+00 1.846730909344119542e+00 4.481329999999999814e+00 3.585491517905604830e+00 1.877028180005595681e+00 9.031000000000000139e-01 5.906025784532682010e+00 3.404161406054904582e+00 1.792510000000000048e+00 3.585495416190946472e+00 3.434457872853128979e+00 3.591920000000000002e+00 5.906019715180194751e+00 4.931271481375550714e+00 2.681880000000000042e+00 1.264926785024402367e+00 3.373841788528017638e+00 5.370700000000000252e+00 1.264932854376888738e+00 4.961591902765689177e+00 4.481329999999999814e+00 3.585499314476288113e+00 4.991888369563913130e+00 9.031000000000000139e-01 5.906023613465537281e+00 6.519021595613222253e+00 1.792510000000000048e+00 3.585493245123801742e+00 6.549318866274698614e+00 3.591920000000000002e+00 5.906027511750878034e+00 8.046131670933869273e+00 2.681880000000000042e+00 1.264924613957257415e+00 6.488701978086336197e+00 5.370700000000000252e+00 1.264930683309744008e+00 8.076452092324007737e+00 4.481329999999999814e+00 3.585497143409143828e+00 8.106748559122230802e+00 9.031000000000000139e-01 5.906021442398391663e+00 2.893012164965864108e-01 7.170149999999999579e+00 3.585497587258091645e+00 9.664179055833017173e+00 8.969559999999999533e+00 5.906025340683734193e+00 1.816411291817232598e+00 8.059519999999999129e+00 1.264928956091547096e+00 2.589815989696992449e-01 1.074834000000000067e+01 1.264935025444033689e+00 1.846730909344119542e+00 9.858969999999999345e+00 3.585491517905604830e+00 1.877028180005595681e+00 6.280739999999999768e+00 5.906025784532682010e+00 3.404161406054904582e+00 7.170149999999999579e+00 3.585495416190946472e+00 3.434457872853128979e+00 8.969559999999999533e+00 5.906019715180194751e+00 4.931271481375550714e+00 8.059519999999999129e+00 1.264926785024402367e+00 3.373841788528017638e+00 1.074834000000000067e+01 1.264932854376888738e+00 4.961591902765689177e+00 9.858969999999999345e+00 3.585499314476288113e+00 4.991888369563913130e+00 6.280739999999999768e+00 5.906023613465537281e+00 6.519021595613222253e+00 7.170149999999999579e+00 3.585493245123801742e+00 6.549318866274698614e+00 8.969559999999999533e+00 5.906027511750878034e+00 8.046131670933869273e+00 8.059519999999999129e+00 1.264924613957257415e+00 6.488701978086336197e+00 1.074834000000000067e+01 1.264930683309744008e+00 8.076452092324007737e+00 9.858969999999999345e+00 3.585497143409143828e+00 8.106748559122230802e+00 6.280739999999999768e+00 5.906021442398391663e+00 2.893012164965864108e-01 1.254779000000000089e+01 3.585497587258091645e+00 9.664179055833017173e+00 1.434720000000000084e+01 5.906025340683734193e+00 1.816411291817232598e+00 1.343716000000000044e+01 1.264928956091547096e+00 2.589815989696992449e-01 1.612597999999999843e+01 1.264935025444033689e+00 1.846730909344119542e+00 1.523661000000000065e+01 3.585491517905604830e+00 1.877028180005595681e+00 1.165837999999999930e+01 5.906025784532682010e+00 3.404161406054904582e+00 1.254779000000000089e+01 3.585495416190946472e+00 3.434457872853128979e+00 1.434720000000000084e+01 5.906019715180194751e+00 4.931271481375550714e+00 1.343716000000000044e+01 1.264926785024402367e+00 3.373841788528017638e+00 1.612597999999999843e+01 1.264932854376888738e+00 4.961591902765689177e+00 1.523661000000000065e+01 3.585499314476288113e+00 4.991888369563913130e+00 1.165837999999999930e+01 5.906023613465537281e+00 6.519021595613222253e+00 1.254779000000000089e+01 3.585493245123801742e+00 6.549318866274698614e+00 1.434720000000000084e+01 5.906027511750878034e+00 8.046131670933869273e+00 1.343716000000000044e+01 1.264924613957257415e+00 6.488701978086336197e+00 1.612597999999999843e+01 1.264930683309744008e+00 8.076452092324007737e+00 1.523661000000000065e+01 3.585497143409143828e+00 8.106748559122230802e+00 1.165837999999999930e+01 5.906021442398391663e+00 8.698914500002224992e-01 1.792510000000000048e+00 1.078462400862062864e+01 1.024476928933665221e+01 3.591920000000000002e+00 1.310515176204627252e+01 2.397001525320868520e+00 2.681880000000000042e+00 8.464055377454085871e+00 8.395718324733354443e-01 5.370700000000000252e+00 8.464061446806573130e+00 2.427321142847755464e+00 4.481329999999999814e+00 1.078461793926814316e+01 2.457618413509231825e+00 9.031000000000000139e-01 1.310515220589522123e+01 3.984751639558540948e+00 1.792510000000000048e+00 1.078462183755348569e+01 4.015048910220016865e+00 3.591920000000000002e+00 1.310515610418056198e+01 5.511861714879186636e+00 2.681880000000000042e+00 8.464053206386941142e+00 3.954432022031653560e+00 5.370700000000000252e+00 8.464059275739428401e+00 5.542182136269325099e+00 4.481329999999999814e+00 1.078462573583882644e+01 5.572478603067549052e+00 9.031000000000000139e-01 1.310515003482807650e+01 7.099611829116859063e+00 1.792510000000000048e+00 1.078461966648634096e+01 7.129909099778334536e+00 3.591920000000000002e+00 1.310515393311341725e+01 8.626722708300755826e+00 2.681880000000000042e+00 8.464061002957624424e+00 7.069292211589972119e+00 5.370700000000000252e+00 8.464057104672281895e+00 8.657042325827644547e+00 4.481329999999999814e+00 1.078462356477168171e+01 8.687338792625867612e+00 9.031000000000000139e-01 1.310514786376092999e+01 8.698914500002224992e-01 7.170149999999999579e+00 1.078462400862062864e+01 1.024476928933665221e+01 8.969559999999999533e+00 1.310515176204627252e+01 2.397001525320868520e+00 8.059519999999999129e+00 8.464055377454085871e+00 8.395718324733354443e-01 1.074834000000000067e+01 8.464061446806573130e+00 2.427321142847755464e+00 9.858969999999999345e+00 1.078461793926814316e+01 2.457618413509231825e+00 6.280739999999999768e+00 1.310515220589522123e+01 3.984751639558540948e+00 7.170149999999999579e+00 1.078462183755348569e+01 4.015048910220016865e+00 8.969559999999999533e+00 1.310515610418056198e+01 5.511861714879186636e+00 8.059519999999999129e+00 8.464053206386941142e+00 3.954432022031653560e+00 1.074834000000000067e+01 8.464059275739428401e+00 5.542182136269325099e+00 9.858969999999999345e+00 1.078462573583882644e+01 5.572478603067549052e+00 6.280739999999999768e+00 1.310515003482807650e+01 7.099611829116859063e+00 7.170149999999999579e+00 1.078461966648634096e+01 7.129909099778334536e+00 8.969559999999999533e+00 1.310515393311341725e+01 8.626722708300755826e+00 8.059519999999999129e+00 8.464061002957624424e+00 7.069292211589972119e+00 1.074834000000000067e+01 8.464057104672281895e+00 8.657042325827644547e+00 9.858969999999999345e+00 1.078462356477168171e+01 8.687338792625867612e+00 6.280739999999999768e+00 1.310514786376092999e+01 8.698914500002224992e-01 1.254779000000000089e+01 1.078462400862062864e+01 1.024476928933665221e+01 1.434720000000000084e+01 1.310515176204627252e+01 2.397001525320868520e+00 1.343716000000000044e+01 8.464055377454085871e+00 8.395718324733354443e-01 1.612597999999999843e+01 8.464061446806573130e+00 2.427321142847755464e+00 1.523661000000000065e+01 1.078461793926814316e+01 2.457618413509231825e+00 1.165837999999999930e+01 1.310515220589522123e+01 3.984751639558540948e+00 1.254779000000000089e+01 1.078462183755348569e+01 4.015048910220016865e+00 1.434720000000000084e+01 1.310515610418056198e+01 5.511861714879186636e+00 1.343716000000000044e+01 8.464053206386941142e+00 3.954432022031653560e+00 1.612597999999999843e+01 8.464059275739428401e+00 5.542182136269325099e+00 1.523661000000000065e+01 1.078462573583882644e+01 5.572478603067549052e+00 1.165837999999999930e+01 1.310515003482807650e+01 7.099611829116859063e+00 1.254779000000000089e+01 1.078461966648634096e+01 7.129909099778334536e+00 1.434720000000000084e+01 1.310515393311341725e+01 8.626722708300755826e+00 1.343716000000000044e+01 8.464061002957624424e+00 7.069292211589972119e+00 1.612597999999999843e+01 8.464057104672281895e+00 8.657042325827644547e+00 1.523661000000000065e+01 1.078462356477168171e+01 8.687338792625867612e+00 1.165837999999999930e+01 1.310514786376092999e+01 1.450481683503858532e+00 1.792510000000000048e+00 1.798375042998316786e+01 1.082535952284028902e+01 3.591920000000000002e+00 2.030427818340881174e+01 2.977591758824504886e+00 2.681880000000000042e+00 1.566318179881662509e+01 1.420162065976971588e+00 5.370700000000000252e+00 1.566318786816911235e+01 3.007912180214643350e+00 4.481329999999999814e+00 1.798375432826851039e+01 3.038208647012868191e+00 9.031000000000000139e-01 2.030427862725775867e+01 4.565341873062176425e+00 1.792510000000000048e+00 1.798374825891602313e+01 4.595639143723652786e+00 3.591920000000000002e+00 2.030428252554310120e+01 6.092452752246074965e+00 2.681880000000000042e+00 1.566318959538731015e+01 4.535022255535289482e+00 5.370700000000000252e+00 1.566318569710196584e+01 6.122772369772961021e+00 4.481329999999999814e+00 1.798375215720136566e+01 6.153068836571185862e+00 9.031000000000000139e-01 2.030427645619061394e+01 7.680202062620494985e+00 1.792510000000000048e+00 1.798374608784887840e+01 7.710499333281970458e+00 3.591920000000000002e+00 2.030428035447595647e+01 9.207312941804392636e+00 2.681880000000000042e+00 1.566318742432016364e+01 7.649883248956859561e+00 5.370700000000000252e+00 1.566319349367265090e+01 9.237632559331279580e+00 4.481329999999999814e+00 1.798374998613422093e+01 9.267929026129504422e+00 9.031000000000000139e-01 2.030427428512346921e+01 1.450481683503858532e+00 7.170149999999999579e+00 1.798375042998316786e+01 1.082535952284028902e+01 8.969559999999999533e+00 2.030427818340881174e+01 2.977591758824504886e+00 8.059519999999999129e+00 1.566318179881662509e+01 1.420162065976971588e+00 1.074834000000000067e+01 1.566318786816911235e+01 3.007912180214643350e+00 9.858969999999999345e+00 1.798375432826851039e+01 3.038208647012868191e+00 6.280739999999999768e+00 2.030427862725775867e+01 4.565341873062176425e+00 7.170149999999999579e+00 1.798374825891602313e+01 4.595639143723652786e+00 8.969559999999999533e+00 2.030428252554310120e+01 6.092452752246074965e+00 8.059519999999999129e+00 1.566318959538731015e+01 4.535022255535289482e+00 1.074834000000000067e+01 1.566318569710196584e+01 6.122772369772961021e+00 9.858969999999999345e+00 1.798375215720136566e+01 6.153068836571185862e+00 6.280739999999999768e+00 2.030427645619061394e+01 7.680202062620494985e+00 7.170149999999999579e+00 1.798374608784887840e+01 7.710499333281970458e+00 8.969559999999999533e+00 2.030428035447595647e+01 9.207312941804392636e+00 8.059519999999999129e+00 1.566318742432016364e+01 7.649883248956859561e+00 1.074834000000000067e+01 1.566319349367265090e+01 9.237632559331279580e+00 9.858969999999999345e+00 1.798374998613422093e+01 9.267929026129504422e+00 6.280739999999999768e+00 2.030427428512346921e+01 1.450481683503858532e+00 1.254779000000000089e+01 1.798375042998316786e+01 1.082535952284028902e+01 1.434720000000000084e+01 2.030427818340881174e+01 2.977591758824504886e+00 1.343716000000000044e+01 1.566318179881662509e+01 1.420162065976971588e+00 1.612597999999999843e+01 1.566318786816911235e+01 3.007912180214643350e+00 1.523661000000000065e+01 1.798375432826851039e+01 3.038208647012868191e+00 1.165837999999999930e+01 2.030427862725775867e+01 4.565341873062176425e+00 1.254779000000000089e+01 1.798374825891602313e+01 4.595639143723652786e+00 1.434720000000000084e+01 2.030428252554310120e+01 6.092452752246074965e+00 1.343716000000000044e+01 1.566318959538731015e+01 4.535022255535289482e+00 1.612597999999999843e+01 1.566318569710196584e+01 6.122772369772961021e+00 1.523661000000000065e+01 1.798375215720136566e+01 6.153068836571185862e+00 1.165837999999999930e+01 2.030427645619061394e+01 7.680202062620494985e+00 1.254779000000000089e+01 1.798374608784887840e+01 7.710499333281970458e+00 1.434720000000000084e+01 2.030428035447595647e+01 9.207312941804392636e+00 1.343716000000000044e+01 1.566318742432016364e+01 7.649883248956859561e+00 1.612597999999999843e+01 1.566319349367265090e+01 9.237632559331279580e+00 1.523661000000000065e+01 1.798374998613422093e+01 9.267929026129504422e+00 1.165837999999999930e+01 2.030427428512346921e+01