-2.822865092869999899e+03
-2.822827136970000083e+03
-2.822713580560000082e+03
-2.822525166989999889e+03
-2.822263049959999989e+03
