3.039537613503109567e-04 -2.139999999999999975e-03 2.363214148349869481e-03 1.644342960217013566e-03 -3.014999999999999885e-03 1.853816665472815409e-03 -1.165464393565712850e-04 1.221999999999999996e-03 -2.539850768740814242e-03 5.397904503676402696e-04 1.727999999999999935e-03 -2.549642969062903674e-03 2.007257199061102701e-04 -2.265999999999999785e-03 2.986529454964101469e-03 -6.192591988594454457e-04 -2.557999999999999944e-03 2.111613611584268503e-03 -3.550134761934135830e-04 1.374999999999999920e-03 -2.212622297573869218e-03 -5.628988933301904779e-05 2.040999999999999846e-03 -2.277846669194148483e-03 9.229444702152986421e-04 -1.925000000000000062e-03 2.499898098903033730e-03 5.561336659402167041e-04 -1.144999999999999967e-03 1.720863546481212272e-03 -2.344543828867496650e-04 2.435999999999999797e-03 -2.732997647702096848e-03 -7.789777584452863175e-04 2.474000000000000071e-03 -3.140544324133566229e-03 -5.831990659566970922e-04 -2.020000000000000094e-03 2.011390526344209589e-03 8.169181052306824856e-04 -1.958999999999999804e-03 2.677997537218119051e-03 -1.104682738017292412e-04 2.010000000000000068e-03 -2.016646166406805846e-03 -4.849629714425056706e-04 1.838999999999999923e-03 -2.405801304415984988e-03 7.788620463313743495e-04 -2.867000000000000191e-03 1.658758244225029934e-03 3.372812921821041255e-04 -2.066000000000000128e-03 2.477906239134961604e-03 -7.450711262815142531e-04 2.494000000000000123e-03 -2.869392447327760460e-03 1.119086178672329358e-03 1.874000000000000015e-03 -3.004683032318810568e-03 1.369172433383777313e-03 -1.152999999999999945e-03 2.148891539296933495e-03 2.063526294214916307e-04 -2.138999999999999842e-03 2.994101633600776326e-03 5.899991094840667917e-04 1.778000000000000067e-03 -2.225630483887208223e-03 -1.154563871311255294e-03 2.170000000000000054e-03 -2.684877700578327565e-03 -8.610705999647069514e-04 -2.654000000000000109e-03 2.260533879833792528e-03 1.357645327496686660e-03 -1.392000000000000008e-03 2.142798442394061066e-03 1.161030110890962823e-03 2.063999999999999863e-03 -3.255867638833697709e-03 -2.763825842803739586e-04 2.696000000000000046e-03 -2.643337032447149511e-03 6.036249208260448425e-04 -1.219000000000000031e-03 1.849462071781346559e-03 -7.050936648796360005e-04 -2.353000000000000057e-03 2.005169051164166442e-03 -1.150207545419666775e-03 2.386000000000000100e-03 -2.916979019886784593e-03 -1.165944313085767059e-04 1.337000000000000081e-03 -2.428486511922153639e-03 1.641738869669391847e-03 -3.114000000000000015e-03 2.020565634622311941e-03 7.945849719520498575e-04 -3.236000000000000161e-03 1.555159066574207270e-03 -3.672167332857985802e-04 2.039000000000000014e-03 -2.650056956141680180e-03 -3.778102651824391750e-04 1.603999999999999957e-03 -2.134537046650344765e-03 2.036337594830996134e-04 -2.040999999999999846e-03 2.114473525963089448e-03 1.481275897953931043e-03 -3.046000000000000096e-03 1.996386414034310910e-03 -2.095508858952856753e-04 1.400999999999999902e-03 -2.511282028411086515e-03 5.182483809312354644e-04 1.659000000000000101e-03 -2.132561515094500738e-03 3.494038964569980729e-04 -2.386000000000000100e-03 2.789941561599573478e-03 -4.328478411715397422e-04 -2.732000000000000053e-03 2.308265094479647513e-03 -2.768481054370499901e-04 1.645999999999999894e-03 -2.313231317122417963e-03 2.502787788374229990e-05 2.014999999999999864e-03 -1.754690458550634685e-03 7.933970398381942060e-04 -2.030999999999999819e-03 2.373904197135172801e-03 4.399466293501503688e-04 -1.152000000000000029e-03 1.847613586041042637e-03 -1.842463900011385861e-04 2.563999999999999873e-03 -2.719991593327367001e-03 -7.581570339967565533e-04 2.517999999999999839e-03 -2.571376073584188873e-03 -6.533900599582356458e-04 -2.147000000000000037e-03 2.235759027611825076e-03 9.886187654134079208e-04 -2.050999999999999872e-03 2.692241247858829546e-03 1.641235514380171435e-04 1.918000000000000000e-03 -2.281576967771057306e-03 -4.216529402781540111e-04 2.086000000000000180e-03 -2.665731756564186910e-03 6.156016837986395818e-04 -2.923999999999999950e-03 1.624772158459234471e-03 3.754454448307281006e-05 -2.109999999999999896e-03 2.393728557539379596e-03 -8.107775493604566950e-04 2.403000000000000188e-03 -3.049694044564643138e-03 1.056353649885999725e-03 2.047999999999999907e-03 -3.334708228072214356e-03 1.584473810209744435e-03 -1.461999999999999975e-03 2.318131951541890605e-03 3.885033786294934304e-04 -2.511000000000000211e-03 3.075723349846905177e-03 4.448244708979714091e-04 1.704000000000000003e-03 -2.595156293961953242e-03 -1.121896227875094926e-03 2.217999999999999920e-03 -2.914246018077340083e-03 -4.943259168975748952e-04 -2.442000000000000160e-03 2.192833529450735792e-03 1.560936347761431595e-03 -1.142000000000000003e-03 1.864556171917918339e-03 1.260563046300838515e-03 2.001000000000000174e-03 -2.681008356253435521e-03 -1.746802840603499775e-04 2.635000000000000189e-03 -2.539175417012498603e-03 5.481919500508770091e-04 -1.038999999999999993e-03 1.833867657684004355e-03 -6.721684654121566280e-04 -1.858000000000000059e-03 1.928273464554617093e-03 -1.066494185765292767e-03 2.210000000000000159e-03 -2.326798476819345006e-03 -2.408843561768018039e-04 1.343999999999999926e-03 -2.377329747205735727e-03 1.465536708523594101e-03 -2.841999999999999908e-03 2.012704438304300115e-03 6.445395616425433081e-04 -2.729999999999999788e-03 1.423795544829958544e-03 -5.051223427876086209e-04 2.008999999999999935e-03 -1.946694998919131555e-03 -2.792592954535083561e-04 1.557000000000000007e-03 -2.156530372126209873e-03 3.179739092868187861e-04 -2.014999999999999864e-03 2.897817211801472208e-03 1.520793175823423196e-03 -3.203999999999999817e-03 2.187829316095957644e-03 -2.315767389904738150e-04 1.312000000000000015e-03 -2.784395304901683167e-03 4.500338512086822268e-04 1.897999999999999948e-03 -2.368842656819207439e-03 2.296811940213058833e-04 -2.253999999999999927e-03 3.494846856317590858e-03 -5.484077844776218558e-04 -2.798000000000000140e-03 2.480110663241530920e-03 -3.356094431633020671e-04 1.392999999999999924e-03 -2.544255353076734557e-03 1.157485799600272043e-04 2.223000000000000149e-03 -2.172334750041355136e-03 8.860010204588778405e-04 -1.874000000000000015e-03 3.024565785653509156e-03 5.330477260236909627e-04 -1.312000000000000015e-03 1.907322762874960392e-03 -1.010978665615282478e-04 2.452999999999999885e-03 -3.132008975302706145e-03 -7.888484796462578042e-04 2.771000000000000026e-03 -2.927059971397884958e-03 -6.785989716868610563e-04 -2.037999999999999881e-03 2.035136220410205168e-03 8.015484530530107062e-04 -1.946999999999999946e-03 2.586938359800697914e-03 1.201544967575780267e-04 1.946999999999999946e-03 -1.769384892246153628e-03 -6.697663361347866960e-04 1.892000000000000019e-03 -2.458114939334730183e-03 7.080438257996887188e-04 -2.880999999999999880e-03 1.775829930130399604e-03 2.437302719307335181e-04 -2.079000000000000119e-03 2.524577500205642602e-03 -8.605184221354349010e-04 2.554999999999999979e-03 -2.646390380341786044e-03 1.204325412797043306e-03 1.807999999999999928e-03 -3.079778125140061103e-03 1.488478939076429792e-03 -1.247999999999999977e-03 2.284740564686919568e-03 3.568320992376563562e-04 -2.276999999999999944e-03 3.118407422540173547e-03 5.636495913627755311e-04 1.804000000000000048e-03 -2.029878848147489024e-03 -1.029277449152543817e-03 1.966999999999999998e-03 -2.860517423940296851e-03 -6.252072539369972091e-04 -2.658999999999999905e-03 2.286658236296923875e-03 1.463125918245624735e-03 -1.185000000000000072e-03 2.356009241781087827e-03 1.288632538639100178e-03 1.954000000000000008e-03 -2.992272076593395069e-03 -1.168518540937327601e-04 2.569999999999999802e-03 -2.518757956651424251e-03 5.348962117639948855e-04 -1.172000000000000082e-03 1.743644471399065756e-03 -6.329885969144963655e-04 -2.112999999999999861e-03 2.215052016584761248e-03 -1.042460140248775528e-03 2.092999999999999809e-03 -2.712980253520564169e-03 -2.205952740928977633e-04 1.404999999999999999e-03 -2.324790684136505015e-03 1.594280142402886144e-03 -3.033000000000000106e-03 2.066529416083843270e-03 7.546349670375306854e-04 -2.978000000000000178e-03 1.992786758919344332e-03 -5.585145935221247577e-04 1.918000000000000000e-03 -2.447022159446623525e-03 -3.655272879957045806e-04 1.510000000000000057e-03 -2.007112055100687600e-03 -1.420569016836292612e-04 -8.000000000000000654e-05 -9.155434652074404944e-04 -4.094051861721194861e-03 1.425000000000000051e-03 -2.186971731307290993e-03 5.310135138402337883e-03 -1.663999999999999898e-03 1.765852432086208873e-03 4.566937689163714023e-03 -1.087000000000000076e-03 2.987549019396332564e-03 8.131603501664146094e-05 -6.059999999999999849e-04 -2.854605094389981151e-04 -4.265753054888572586e-03 9.489999999999999738e-04 -2.450020586588775185e-03 3.047934989308935622e-05 -4.209999999999999875e-04 -1.089977526938099061e-03 -4.113248329364439272e-03 2.184999999999999876e-03 -2.524520980499201078e-03 3.975148220377508305e-03 -1.307999999999999918e-03 2.491515527952719439e-03 4.601840418879482586e-03 -9.790000000000000525e-04 2.947614079076007337e-03 -4.232237420387486670e-04 -2.640000000000000202e-04 -4.584622821723927403e-04 -4.473176038863725321e-03 1.645999999999999894e-03 -2.272773003477343914e-03 -4.302502796859084076e-04 -3.460000000000000076e-04 -9.063468965193170485e-04 -4.423514486444606736e-03 1.925000000000000062e-03 -2.179463142201468022e-03 4.704923285252199210e-03 -2.285999999999999838e-03 2.098579967476016991e-03 3.890923346306899514e-03 -1.141000000000000087e-03 3.275824249431570547e-03 -2.091280268440924540e-04 -2.689999999999999791e-04 -2.419720405094285415e-04 -4.142026367281153448e-03 9.100000000000000016e-04 -2.756959842425652472e-03 -2.841737952517070205e-04 1.949999999999999965e-04 1.834373301491297947e-04 -4.913855346903378378e-03 1.825000000000000016e-03 -9.199704504542900686e-04 4.617660261127310740e-03 -1.626000000000000058e-03 3.056695390909216353e-03 3.604256242513449119e-03 4.099999999999999912e-04 2.806349040711583927e-03 -5.358708489059710485e-04 -2.829999999999999942e-04 1.080573659355434221e-03 -4.458206053127105294e-03 1.446000000000000020e-03 -1.129275780250699884e-03 -3.586884542793483156e-04 -1.489999999999999897e-04 8.766707436470615395e-04 -4.598989972756007197e-03 7.820000000000000345e-04 -6.855225966295305437e-04 4.308775602922976233e-03 -1.641000000000000097e-03 2.883966505293660606e-03 4.396570535904817736e-03 -5.529999999999999976e-04 2.566882841660993869e-03 -1.209919535978542528e-04 8.600000000000000331e-05 1.087244658374818002e-03 -4.522932509217548677e-03 1.464000000000000024e-03 -1.645744061834353376e-03 -1.695774218782994316e-04 -1.440000000000000036e-04 4.972408852750437314e-04 -4.759839145272283870e-03 1.049999999999999935e-03 -8.762096273915337711e-04 4.433049930212355598e-03 -9.899999999999999946e-04 3.056535017997375706e-03 5.273785721325925657e-03 2.079999999999999872e-04 1.912248196636297812e-03 -1.863017349845362738e-06 -2.750000000000000166e-04 8.850138581775734157e-04 -4.680050716926101653e-03 1.641000000000000097e-03 -1.305011221024354219e-03 -5.231399468338523637e-04 2.699999999999999899e-05 1.685989205975943592e-04 -4.406602562740770564e-03 -5.099999999999999960e-05 -2.604197161131710340e-03 3.939505883171757344e-03 8.279999999999999600e-04 2.497399727007093822e-03 4.613621749643815814e-03 -1.585999999999999953e-03 1.551147752863512533e-03 -1.795961163201793657e-04 1.069999999999999988e-04 -8.212205763390908195e-04 -4.943648011366523314e-03 9.629999999999999888e-04 -1.986025513358728994e-03 -1.894485750190437392e-04 4.300000000000000165e-05 4.125642221803215337e-04 -4.833425293663671206e-03 2.429999999999999977e-04 -2.025012081586736144e-03 4.693557085261601709e-03 6.750000000000000357e-04 2.156681684298962249e-03 4.625743954180220815e-03 -8.639999999999999677e-04 1.676579216847544785e-03 -2.608172334021145234e-04 5.519999999999999733e-04 -1.256098869818959461e-03 -4.529589509612044068e-03 3.390000000000000001e-04 -2.201005877868688135e-03 3.048816057557492826e-04 -4.290000000000000193e-04 2.101718498557688384e-04 -4.567080332558098518e-03 -2.159999999999999919e-04 -2.031443387338419549e-03 4.855048415656055411e-03 1.067999999999999939e-03 1.919933822202112136e-03 5.070911697281198921e-03 -1.430999999999999980e-03 1.722943863965596548e-03 -1.451593074995755365e-04 1.949999999999999965e-04 -7.176536598152646624e-04 -4.695648328931357161e-03 8.329999999999999731e-04 -2.742409118093823688e-03 -4.605687236825048848e-04 3.899999999999999929e-04 2.478254441446001871e-04 -4.697189401242053523e-03 2.304000000000000058e-03 -1.666804346304420932e-03 4.724230801393647892e-03 -4.040000000000000080e-04 1.740870280969699811e-03 3.918412937836204119e-03 6.419999999999999925e-04 2.434893026109739411e-03 -1.739504113180384939e-04 7.699999999999999597e-04 4.554571927220880034e-04 -4.683171918228807955e-03 1.412000000000000061e-03 -2.376227006056682786e-03 2.457346002133337895e-04 -2.889999999999999774e-04 6.144514836822332520e-05 -4.634844805456659646e-03 2.383000000000000135e-03 -2.311903680807531145e-03 3.816855546195337297e-03 2.290000000000000098e-04 2.432047643340459579e-03 4.418899938290884663e-03 9.810000000000001011e-04 1.948085299819495410e-03 -1.534372335452793628e-04 7.829999999999999504e-04 5.049767679776356524e-05 -4.378612257512207347e-03 1.603000000000000041e-03 -2.356646069812742827e-03 -4.283502043471962588e-04 -1.000000000000000082e-05 4.980452815113452876e-04 -4.291185129582911553e-03 2.111000000000000029e-03 -1.757735811675486875e-03 3.886018048271719719e-03 -8.210000000000000067e-04 2.406404938597502246e-03 3.493534143572967279e-03 4.029999999999999837e-04 2.378866155900724935e-03 -2.791247878528369040e-04 8.080000000000000160e-04 5.943612982068303876e-04 -5.031799015960792577e-03 1.281999999999999936e-03 -2.780510504021875811e-03 -4.742926430893358338e-06 9.619999999999999645e-04 -1.210103493461246553e-04 -4.011626415469579654e-03 1.232000000000000022e-03 -2.421356128847362409e-03 4.735776169782846337e-03 -5.649999999999999641e-04 2.767263823656303592e-03 4.206140528189481441e-03 -5.490000000000000088e-04 2.631399600425961098e-03 -1.986290131436689859e-04 -5.240000000000000517e-04 1.494507113986820695e-04 -5.007633127766864846e-03 2.011000000000000201e-03 -1.659826333593918428e-03 -5.785726511166941607e-04 1.026000000000000002e-03 2.774070788206385693e-04 -5.188869897948154668e-03 9.300000000000000541e-04 -2.862148350831503294e-03 4.214644548616486470e-03 -7.780000000000000457e-04 2.338768977222275940e-03 4.330253549843877947e-03 -1.546999999999999981e-03 2.553169440923278456e-03 -6.382021078562621560e-04 -1.399999999999999979e-05 6.049850847602542036e-05 -4.816707736198791966e-03 1.871999999999999966e-03 -3.123912224125815953e-03 -9.610778507780211809e-05 4.859999999999999954e-04 -2.089504573994490830e-04 -4.745100983501977267e-03 1.315999999999999896e-03 -2.882888422462542063e-03 4.346699685898712702e-03 -3.110000000000000243e-04 2.334138564997380837e-03 5.026137580133642480e-03 -1.043000000000000090e-03 1.665356726220636793e-03 1.199810579439896828e-04 -4.670000000000000214e-04 -1.792248468673944247e-04 -3.983378554209696457e-03 1.446000000000000020e-03 -2.021332306638931077e-03 -9.380870952885279283e-05 -1.069999999999999988e-03 -1.680027559789758933e-04 -4.731130692963757614e-03 5.099999999999999960e-05 -3.107739108434984070e-03 4.176335997040055321e-03 -1.709999999999999932e-03 3.530705827427065534e-03 4.523224458314473347e-03 -2.079000000000000119e-03 2.843597105728187715e-03 -1.278169219354844442e-05 -1.188999999999999953e-03 -2.828880137875575953e-04 -4.203086514064030034e-03 8.469999999999999881e-04 -2.904529007480055949e-03 -1.337427171260369737e-04 -1.100999999999999982e-03 2.325035174266076431e-04 -4.195368893863545348e-03 -1.469999999999999953e-04 -2.560034539689292916e-03 3.960938636310077331e-03 -1.876999999999999979e-03 3.584193928819429630e-03 4.149036374626326532e-03 -1.590000000000000050e-03 2.993160731071357449e-03 -2.763285962510305381e-04 -8.189999999999999581e-04 4.435658794288547163e-05 -4.804279184202083983e-03 7.129999999999999836e-04 -2.584164569109820807e-03 -1.957023113260831495e-04 -1.348000000000000023e-03 4.842990866619808609e-04 -5.041235544408943087e-03 -8.100000000000000375e-05 -2.511882597930853271e-03 4.893683176148853550e-03 -1.523000000000000048e-03 2.909029042735334410e-03 4.572613523354241566e-03 -1.618000000000000081e-03 3.319165944335699704e-03 -5.436533910989375853e-04 -8.440000000000000236e-04 4.491558642015323487e-04 -4.769779851819933199e-03 1.329000000000000103e-03 -3.313297476106334249e-03 -3.478542963918652411e-04 8.299999999999999815e-05 1.153359808633901498e-04 -4.234834049149976444e-03 -3.849999999999999798e-04 -9.346018276036099567e-04 4.874001059400543713e-03 -4.029999999999999837e-04 1.010467056841719835e-03 4.092954716910989985e-03 -7.690000000000000438e-04 3.571381879834002846e-04 -1.376992433304100180e-04 -4.789999999999999879e-04 -5.256319229139651229e-04 -4.979494849297392070e-03 1.100000000000000039e-04 1.196705720748645555e-04 1.235987090687372294e-04 -4.389999999999999914e-04 -9.967904320450105151e-06 -4.704309524362289101e-03 6.890000000000000508e-04 -7.723372961305460848e-04 4.447885275102141101e-03 -2.509999999999999753e-04 1.386939284730786051e-03 4.228514991111965993e-03 -6.359999999999999551e-04 5.328095062415509316e-04 -2.091613539403934042e-04 -3.640000000000000115e-04 -7.897420642322539172e-04 -4.781958850332873774e-03 5.749999999999999903e-04 6.862618831828172115e-05 -4.295408013843133037e-04 -2.939999999999999905e-04 7.276468886844645375e-05 -4.776912641103427636e-03 1.499999999999999869e-04 -8.266768529880755018e-04 4.410682936852769812e-03 -7.029999999999999574e-04 1.137121378989865584e-03 4.558572181500040142e-03 -1.373000000000000088e-03 3.958341395761142485e-04 -1.081510689968356853e-04 -1.869999999999999917e-04 -1.017599305362794403e-03 -4.718311543042853079e-03 -3.710000000000000190e-04 -3.488411999586108294e-04 -4.611082197929844623e-05 2.820000000000000241e-04 -1.143995538494968749e-03 -4.604168424401352232e-03 1.853000000000000046e-03 -1.483689360932929002e-03 4.590516880994367950e-03 -1.544000000000000017e-03 4.063000926725629383e-04 4.261843987651552090e-03 -2.239999999999999966e-04 1.331715744788768878e-03 -3.825981189035873868e-04 -4.699999999999999724e-05 -7.135535574933646406e-04 -4.347886552043263124e-03 9.840000000000000656e-04 -1.017783145154868996e-03 -5.719663075974663023e-04 2.530000000000000239e-04 -2.999925715302305959e-04 -4.519975011980759995e-03 1.005999999999999950e-03 -1.944950099891900284e-03 4.083147451994706065e-03 -1.701999999999999954e-03 1.733317203200947340e-04 4.228933319793614157e-03 -9.520000000000000467e-04 6.872757646966392306e-04 -2.694976240582952725e-04 6.250000000000000130e-04 -7.417364967607658786e-04 -4.912939235938056266e-03 1.123000000000000083e-03 -1.045450172882653791e-03 3.514202324498085401e-05 -1.440000000000000036e-04 -9.077626552145936275e-04 -4.496694572579114195e-03 1.683000000000000034e-03 -1.395041906516618791e-03 4.897279100371253885e-03 -1.688000000000000047e-03 4.407520993335235955e-04 4.739871475242875970e-03 -4.629999999999999784e-04 7.654563332933595702e-04 9.033436802930620098e-05 2.599999999999999840e-05 -6.463533878249156381e-04 -4.345522954240320541e-03 1.294999999999999927e-03 -8.765159748518367528e-04 -3.375017902245563430e-04 -1.630000000000000047e-04 -3.409729338161894010e-04 -4.946650835632056958e-03 1.288999999999999998e-03 -3.314294952786564670e-04 4.477966157769644462e-03 -1.262000000000000101e-03 1.909211379043648750e-03 4.590776702210459456e-03 -1.381000000000000066e-03 1.616194688285311175e-03 -1.961045094442338734e-04 -4.360000000000000269e-04 3.549126954275323253e-04 -4.798329130432086621e-03 2.112000000000000162e-03 -1.826189901419578284e-03 -6.282957865964503973e-05 -2.249999999999999938e-04 -6.049069713976286747e-04 -4.639583334764171320e-03 1.564000000000000069e-03 -3.802715868672792792e-04 4.118551428394388349e-03 -9.859999999999998974e-04 1.470684239281340932e-03 4.796736202030654588e-03 -1.185000000000000072e-03 1.209321631382037762e-03 -1.251581771277040752e-04 -9.500000000000000523e-05 3.070944165928245318e-06 -4.241411729188610154e-03 1.665000000000000030e-03 -1.986477169136678569e-03 -1.340491978325030007e-04 -5.159999999999999656e-04 -2.440139597655479708e-04 -4.431806144622874380e-03 1.075000000000000001e-03 -3.167685219256013572e-04 4.434461691522740764e-03 -7.159999999999999481e-04 1.655888736122468428e-03 4.679793560633271378e-03 -1.333999999999999899e-03 1.339142348615470239e-03 -4.369987336148698268e-04 -1.669999999999999935e-04 8.759635305302384493e-04 -4.611130573040681489e-03 2.528999999999999998e-03 -1.893455792557487572e-03