-4.060203548382325778e+01 4.571178777340177390e+01 -5.411383021207920763e+01 4.571178777340177390e+01 -4.835399828799795330e+01 -5.082998767908075699e+00 -5.411383021207921473e+01 -5.082998767908075699e+00 8.640545626611145735e+01
-3.989163779501666340e+01 4.568303358322393848e+01 -5.417214425531245325e+01 4.568303358322393848e+01 -4.757130148830700023e+01 -5.232243088332833914e+00 -5.417214425531244615e+01 -5.232243088332833914e+00 8.714998249466367497e+01
-4.007293352269448405e+01 4.562464814087628184e+01 -5.428925768975972233e+01 4.562464814087628184e+01 -4.759235494499867514e+01 -5.456918147012257414e+00 -5.428925768975972943e+01 -5.456918147012257414e+00 8.706520398637229619e+01
-3.902121330369892149e+01 4.556451476776201304e+01 -5.441884033482143934e+01 4.556451476776201304e+01 -4.636989289163222594e+01 -5.693154865033260847e+00 -5.441884033482143934e+01 -5.693154865033260847e+00 8.827110120390969428e+01
-3.827085563376699184e+01 4.548906350548869426e+01 -5.454937065699870402e+01 4.548906350548869426e+01 -4.543514786513904369e+01 -5.941102520437203438e+00 -5.454937065699869692e+01 -5.941102520437203438e+00 8.908128020657458990e+01
