9.993798732450197999e-07 3.099988828132819183e-05 -1.119200000000364903e-01 -2.000020563273869537e-06 3.540000009724749612e-04 1.124999999657437348e-03 -9.869762202511780521e-07 -1.722530000007553574e-01 -6.809998279350104296e-04 9.999791342050908899e-07 3.580000011993657218e-04 1.124999999636882176e-03 -3.769999682964210040e-04 -3.700000278393630253e-04 6.740000024505698149e-04 3.770000317311760656e-04 -3.699999708091543989e-04 6.789999982885988215e-04 -1.682000198643361210e-03 2.585999872235522374e-03 -5.549999932986976643e-04 1.681999801485810006e-03 2.584000126651713348e-03 -5.590000118654937572e-04 1.339999956215185133e-04 1.600000956109913798e-05 -5.740000007556425848e-04 -1.999993198137573832e-06 -1.030000003300591779e-04 -1.789999998860760072e-04 -1.330000042217003892e-04 1.399998936881923266e-05 -5.729999992798435852e-04 2.000007245180950628e-06 -1.120000000704898227e-04 -2.219999998991655410e-04 -3.899999712791202061e-04 -3.310000288285497587e-04 6.680000024833717721e-04 1.597999810199273027e-03 2.472000120342723005e-03 -5.150000112899517707e-04 -1.596000189806237547e-03 2.471999878778680798e-03 -5.159999936595332940e-04 3.880000287098378368e-04 -3.309999699902070863e-04 6.659999981889242219e-04 2.002328924210963056e-06 -2.801399996180743354e-02 3.808400002797148604e-02 -4.636999885771687056e-03 -1.170003316279455614e-04 1.909100002571243945e-02 -3.003130046530370560e-06 4.118399999700609465e-02 -2.770000041121169296e-03 4.640000114056594925e-03 -1.139996299960566693e-04 1.910099997450174364e-02 4.200020280632550971e-05 -1.164999976067862715e-03 2.077900000093185762e-02 -4.199979721023381035e-05 -1.164999982423801277e-03 2.077600000139552539e-02 -8.510000830726679706e-04 2.606999956285428483e-03 2.067000000209332639e-02 8.519999170896273150e-04 2.605000085085754959e-03 2.067199999269500946e-02 7.060000007876896053e-04 1.540000074614099324e-03 2.124299999456471383e-02 -2.688400263031483316e-10 5.011000019931574449e-03 1.995399999499462840e-02 -7.039999990389663202e-04 1.537999967979431599e-03 2.124700000234970576e-02 9.998385747121680441e-07 3.536000019258051831e-03 1.920399999646245012e-02 -2.355200086328710848e-02 1.413799825602922097e-02 3.731500011588152060e-02 1.486899918471615983e-02 1.313800115681997699e-02 3.230999990480203088e-02 -1.487000081535938371e-02 1.313899890765174439e-02 3.231000006895601295e-02 2.355699913681598423e-02 1.413700181890002391e-02 3.731999985584764923e-02 2.465999886961238452e-02 1.475100186237011425e-02 -2.675000150854063043e-03 -1.545100105378039053e-02 1.336899882371353487e-02 -7.731999928066692757e-03 1.545099894637077913e-02 1.336700116083975633e-02 -7.732000098639268786e-03 -2.466200113045206171e-02 1.475199813213654530e-02 -2.672999878604749840e-03 -1.000385585627214873e-06 3.549999978734185140e-03 -2.121400000354049104e-02 -7.620002171660212589e-04 1.474999923258227741e-03 -1.913299999726721448e-02 9.995055212193012104e-07 5.048999979695529758e-03 -2.040300000504884775e-02 7.609997826937535013e-04 1.477000038445108005e-03 -1.913100000567594799e-02 8.449996967770392019e-04 2.569000044195723573e-03 -1.973400000723039144e-02 -8.470003033096258844e-04 2.569999916227330011e-03 -1.973599999789179410e-02 -5.000024840749871375e-06 -1.103000019969120572e-03 -1.961299999887063800e-02 3.999975072580134585e-06 -1.102000019290445875e-03 -1.961499999892131821e-02 4.618999889656676822e-03 -9.799967197288045090e-05 -2.133300002539832360e-02 1.996768033046916802e-06 3.966199995811041379e-02 -4.208800003962848146e-02 -4.620000110477998252e-03 -9.600037071783418632e-05 -2.132999997440237355e-02 1.002199964982528562e-06 -2.922600000180716751e-02 -1.884999970812355902e-03
-6.199760711631801695e-10 3.199988824665187990e-05 -1.118790000000319668e-01 -2.000020871314755241e-06 3.580000009714760746e-04 1.123999999653441930e-03 1.301705417574376144e-08 -1.721640000006787463e-01 -6.799998280294303199e-04 1.999979128685232720e-06 3.580000012739971036e-04 1.123999999631362587e-03 -3.749999684311219623e-04 -3.680000276851058899e-04 6.770000024375323567e-04 3.750000315688758849e-04 -3.679999709624126700e-04 6.769999982976406937e-04 -1.680000198195099725e-03 2.579999872385783759e-03 -5.559999933037441076e-04 1.679999801729260616e-03 2.581000126503449604e-03 -5.560000118514573861e-04 1.339999956971487706e-04 1.500000956109914416e-05 -5.740000007546437093e-04 6.877492677621374882e-12 -1.040000001787986606e-04 -1.789999998961168306e-04 -1.330000043028504823e-04 1.499998936782035441e-05 -5.739999992808423766e-04 7.099440296465778805e-12 -1.100000002207514809e-04 -2.209999998901235958e-04 -3.889999712901599078e-04 -3.310000287549172524e-04 6.660000024778519418e-04 1.595999810571904591e-03 2.467000120190463493e-03 -5.160000112739175290e-04 -1.595000189352456087e-03 2.465999878854311343e-03 -5.159999936590598229e-04 3.890000287153576970e-04 -3.309999699135779535e-04 6.669999981834042477e-04 1.002327063278221249e-06 -2.799099996190503731e-02 3.806200002795403353e-02 -4.628999886064816098e-03 -1.140003310348900307e-04 1.907900002566528114e-02 -3.126960601663769070e-09 4.114399999724398238e-02 -2.759000041097773789e-03 4.629000113935158485e-03 -1.139996308499647865e-04 1.907899997456246124e-02 4.100020265341728173e-05 -1.163999976157477313e-03 2.076500000093637818e-02 -4.099979735210234504e-05 -1.163999982360157609e-03 2.076400000138900817e-02 -8.500000827773144694e-04 2.601999956346075921e-03 2.065500000209280138e-02 8.509999172226804728e-04 2.602000084993144179e-03 2.065499999270352730e-02 7.050000011807527672e-04 1.534000074527481399e-03 2.123199999457622486e-02 -2.682366319600093492e-10 5.002000019917590516e-03 1.993999999500361761e-02 -7.039999988247629906e-04 1.533999967963449495e-03 2.123100000235370044e-02 -1.609565944349451022e-10 3.529000019171434424e-03 1.919299999647496729e-02 -2.353600086287361420e-02 1.413099825721832875e-02 3.729400011580019658e-02 1.485899918525883552e-02 1.312900115603870058e-02 3.228499990486621840e-02 -1.485700081474659873e-02 1.312899890860896521e-02 3.228400006889424467e-02 2.353599913712624975e-02 1.413100181728581782e-02 3.729399985596956041e-02 2.464299887015283796e-02 1.474400186108639800e-02 -2.673000150753233276e-03 -1.543400105294293750e-02 1.335799882500024807e-02 -7.730999928149542150e-03 1.543399894705697190e-02 1.335800115955504061e-02 -7.731000098536441184e-03 -2.464400112984149738e-02 1.474399813349889024e-02 -2.671999878696116291e-03 -3.853570887269562820e-10 3.547999978823799389e-03 -2.120000000354401240e-02 -7.600002170887433994e-04 1.474999923423472512e-03 -1.911899999727825414e-02 -4.938776107720428806e-10 5.041999979632885362e-03 -2.039000000503633434e-02 7.599997829167722376e-04 1.475000038382463189e-03 -1.911800000566843405e-02 8.429996972970589444e-04 2.563000044056449635e-03 -1.972200000721335833e-02 -8.430003026918966120e-04 2.562999916545833420e-03 -1.971999999790688407e-02 -4.000024768991753488e-06 -1.103000019880504825e-03 -1.959999999887615876e-02 2.999975231008226925e-06 -1.103000019351093024e-03 -1.959999999891479799e-02 4.613999889772593850e-03 -9.799967233005532543e-05 -2.131200002537072397e-02 -3.229532449685596165e-09 3.963199995798912662e-02 -4.205800003958747035e-02 -4.614000110238419133e-03 -9.800037024807058909e-05 -2.131399997443349584e-02 -9.978016011734543336e-07 -2.920500000195443147e-02 -1.880999970822292734e-03
-1.000619599073274541e-06 3.299988825292952965e-05 -1.117970000000274300e-01 -1.000021033614984584e-06 3.600000010451086295e-04 1.121999999645924241e-03 1.300170675329696611e-08 -1.719610000006777384e-01 -6.789998282322022311e-04 1.999978982944572714e-06 3.600000012749960277e-04 1.124999999629364752e-03 -3.759999683610115652e-04 -3.690000277617350470e-04 6.760000024440509896e-04 3.760000314932455978e-04 -3.669999708867823884e-04 6.769999982911219282e-04 -1.680000198351880129e-03 2.581999872384785257e-03 -5.569999933057418829e-04 1.679999801793851093e-03 2.580000126501451937e-03 -5.580000118504585592e-04 1.339999956971487706e-04 1.500000956109914416e-05 -5.740000007546437093e-04 6.807382275380622353e-12 -1.030000001777997879e-04 -1.779999998971157089e-04 -1.340000043840005998e-04 1.599998929119121719e-05 -5.749999992763213863e-04 7.245180956352842601e-12 -1.120000002217503372e-04 -2.219999998881258421e-04 -3.889999711388993932e-04 -3.330000287549172468e-04 6.660000024798496928e-04 1.596999810653054437e-03 2.466000120267092602e-03 -5.150000112784386278e-04 -1.594000189195675767e-03 2.463999878930940753e-03 -5.149999936625820462e-04 3.860000287799482096e-04 -3.319999701424664463e-04 6.649999982009627449e-04 -9.976748843244859817e-07 -2.796699996208026895e-02 3.803800002794110319e-02 -4.623999886173565249e-03 -1.130003306627320000e-04 1.907300002563668342e-02 -3.122592830705841965e-09 4.108799999726795577e-02 -2.735000041041836614e-03 4.625000113826408139e-03 -1.129996311584790847e-04 1.907299997458354254e-02 4.000020268488870559e-05 -1.164999976241098490e-03 2.075700000094289968e-02 -3.899979746637158789e-05 -1.162999982215888982e-03 2.075700000137696913e-02 -8.490000826646929444e-04 2.599999956414713459e-03 2.064800000208927983e-02 8.499999174164520966e-04 2.599000084911520271e-03 2.064899999271204226e-02 7.040000012712947916e-04 1.532000074440863571e-03 2.122099999458374256e-02 9.997319516198219733e-07 4.999000019986228789e-03 1.993299999500109526e-02 -7.019999986530708544e-04 1.530999968104721290e-03 2.122100000234565867e-02 -1.605469717323117272e-10 3.523000019163443491e-03 1.918499999648095797e-02 -2.351200086198038802e-02 1.411699825900348919e-02 3.726400011568169884e-02 1.484099918627737255e-02 1.311400115465637985e-02 3.226399990498055731e-02 -1.483800081365795054e-02 1.311299891002396661e-02 3.226200006880534932e-02 2.351299913788477275e-02 1.411900181551935078e-02 3.726699985610850557e-02 2.461599887114542320e-02 1.473000185903239508e-02 -2.685000150590212929e-03 -1.541100105173450092e-02 1.334099882672576051e-02 -7.744999928259518537e-03 1.541299894825436806e-02 1.334100115795082420e-02 -7.747000098403544407e-03 -2.462000112886547631e-02 1.472999813529903348e-02 -2.686999878814608569e-03 9.996150541816907959e-07 3.542999978905423102e-03 -2.119400000354454069e-02 -7.600002169965535802e-04 1.473999923426469330e-03 -1.911599999727725541e-02 -1.000493639680285300e-06 5.038999979559252891e-03 -2.038800000502781831e-02 7.589997830901121798e-04 1.473000038310828385e-03 -1.911400000566091523e-02 8.429996974814385827e-04 2.561000044062442839e-03 -1.971600000721136087e-02 -8.430003025240764272e-04 2.560999916548829889e-03 -1.971699999790488267e-02 -4.000024671282073887e-06 -1.104000019876509239e-03 -1.959599999887515903e-02 2.999975323198050307e-06 -1.104000019348096422e-03 -1.959699999891379926e-02 4.608999889822273065e-03 -9.799967269921671905e-05 -2.130300002534312245e-02 9.967747392593080028e-07 3.957799995809871407e-02 -4.202400003953905144e-02 -4.612000110199780505e-03 -9.800037008981793277e-05 -2.130699997444453556e-02 -9.978042443603345300e-07 -2.917100000196741830e-02 -1.893999970856254491e-03
-3.000618650729156254e-06 2.899988821853761794e-05 -1.116800000000124082e-01 -2.095246487458337699e-11 3.590000011217377380e-04 1.122999999641403467e-03 1.012981140843069536e-06 -1.716890000006011108e-01 -6.779998285094164393e-04 9.999790420152670845e-07 3.590000011963691198e-04 1.121999999635883444e-03 -3.739999686580127098e-04 -3.650000276094756140e-04 6.770000024290158402e-04 3.740000313364651987e-04 -3.649999710390417840e-04 6.759999983001639332e-04 -1.675000197741318168e-03 2.573999872763935333e-03 -5.559999933253500885e-04 1.673999802107411757e-03 2.576000126049668264e-03 -5.560000118133438850e-04 1.369999957838186912e-04 1.400000978998767307e-05 -5.720000007702044555e-04 2.000006807382269501e-06 -1.030000000265392734e-04 -1.779999999081554349e-04 -1.340000042217003864e-04 1.399998929318897371e-05 -5.729999992743236951e-04 -9.999929005597005591e-07 -1.100000002963817382e-04 -2.209999998846037329e-04 -3.869999715115307951e-04 -3.280000286026578437e-04 6.670000024638154511e-04 1.590999811182466309e-03 2.459000119813311430e-03 -5.150000112383273758e-04 -1.592000188887635016e-03 2.459999879083199937e-03 -5.139999936696261918e-04 3.890000285585773466e-04 -3.289999699145767804e-04 6.659999981814065809e-04 2.322227390573595066e-09 -2.793099996203460972e-02 3.800800002789962023e-02 -4.615999886341386541e-03 -1.110003300606865738e-04 1.907000002559052984e-02 9.968832246025733746e-07 4.101399999738353924e-02 -2.695000040973439398e-03 4.617000113804328384e-03 -1.129996317675166447e-04 1.906899997462770113e-02 4.100020243039864313e-05 -1.161999976170462754e-03 2.075200000093438066e-02 -3.899979756408127003e-05 -1.161999982219884568e-03 2.075300000137596940e-02 -8.490000823196608903e-04 2.594999956408720627e-03 2.064200000209427330e-02 8.489999176803341959e-04 2.595000084828898330e-03 2.064199999272155889e-02 7.030000014650664153e-04 1.529000074359240097e-03 2.121499999459226099e-02 9.997325991730083032e-07 4.990000019980234992e-03 1.992699999501008554e-02 -7.019999985459691354e-04 1.528999968096730238e-03 2.121300000234765601e-02 -1.601964197211079669e-10 3.518000019158448559e-03 1.917999999648595244e-02 -2.348500086074599424e-02 1.409899826102253319e-02 3.724100011555064871e-02 1.481399918786231208e-02 1.309100115258639459e-02 3.223599990515257224e-02 -1.481200081213208258e-02 1.309099891196538121e-02 3.223700006868381041e-02 2.348399913925938720e-02 1.409900181330110344e-02 3.724199985628855181e-02 2.458999887246261090e-02 1.471200185705801716e-02 -2.693000150428716873e-03 -1.538300104999665470e-02 1.331699882882942179e-02 -7.758999928390101705e-03 1.538299894991658652e-02 1.331800115566793112e-02 -7.761000098214973150e-03 -2.459200112754829012e-02 1.471199813740868730e-02 -2.694999878951184844e-03 -3.845770590108394460e-10 3.538999978841779470e-03 -2.118200000353502241e-02 -7.580002168011341131e-04 1.471999923585720800e-03 -1.910799999728629572e-02 -1.000492898289557007e-06 5.029999979570241170e-03 -2.037700000501882838e-02 7.569997831988615122e-04 1.472000038165561207e-03 -1.910800000564887718e-02 8.429996978927089928e-04 2.556000044068436079e-03 -1.971000000720636580e-02 -8.420003021884362501e-04 2.556999916630452868e-03 -1.971099999790640669e-02 -5.000024772863888116e-06 -1.102000019943149677e-03 -1.958699999887163895e-02 2.999975308286202560e-06 -1.103000019337108768e-03 -1.958599999891479787e-02 4.601999889720691066e-03 -9.599967321963864635e-05 -2.129400002530648303e-02 -3.219685110027981459e-09 3.950799995807403181e-02 -4.197300003946361630e-02 -4.604000110144581409e-03 -9.800036947478710648e-05 -2.129699997448869508e-02 -9.978067362866993489e-07 -2.913900000198040713e-02 -1.906999970888218496e-03
5.999382678484954902e-06 2.499988908500105141e-05 -1.114940000000580883e-01 -3.000021077773822389e-06 3.600000008858570571e-04 1.113999999656964043e-03 1.012949700735310306e-06 -1.712730000005971143e-01 -6.739998289249490761e-04 -2.134717572903161356e-11 3.640000011187411247e-04 1.119999999636408800e-03 -3.689999688904234128e-04 -3.620000272323232386e-04 6.760000023984199559e-04 3.710000314987654747e-04 -3.669999712639347993e-04 6.779999983187212946e-04 -1.670000197579017860e-03 2.571999873144084538e-03 -5.539999933509516311e-04 1.668999803020494721e-03 2.564000125672515670e-03 -5.550000117737581215e-04 1.319999956215185189e-04 1.600000940983862345e-05 -5.740000007446029130e-04 -1.999992993326222678e-06 -1.060000003340546713e-04 -1.829999998830793967e-04 -1.300000042548194942e-04 1.399998958971674322e-05 -5.789999992964030761e-04 7.104960151871336733e-12 -1.100000002197526054e-04 -2.199999998901235986e-04 -3.939999716793508790e-04 -3.260000291350662765e-04 6.640000025004567496e-04 1.587999811420396897e-03 2.456000119588418011e-03 -5.130000112187711389e-04 -1.583000188649704354e-03 2.456999879765870039e-03 -5.119999937163082025e-04 3.880000280236456313e-04 -3.219999699912059598e-04 6.649999981799343185e-04 5.002318841165232835e-06 -2.788899996169441273e-02 3.797000002783006145e-02 -4.611999886001873737e-03 -1.160003297651576726e-04 1.906300002557344275e-02 -3.108331336827713062e-09 4.090599999735784753e-02 -2.645000040860041261e-03 4.609000113771209717e-03 -1.129996323785519691e-04 1.906299997467185772e-02 3.800020264460200140e-05 -1.165999976413335413e-03 2.073600000095493501e-02 -3.899979736091763259e-05 -1.165999982237864423e-03 2.073500000137996555e-02 -8.480000823213085280e-04 2.593999956470366495e-03 2.062800000208975248e-02 8.479999177543167668e-04 2.593000084739283118e-03 2.062799999272907706e-02 6.970000011498580150e-04 1.532000073889476510e-03 2.119899999462238060e-02 -2.000266889622463120e-06 4.982000019736364770e-03 1.990999999503463916e-02 -6.949999985365770639e-04 1.527999968614155617e-03 2.120100000231001786e-02 9.998400785020294961e-07 3.514000019229084667e-03 1.917499999648442782e-02 -2.345200085938243043e-02 1.407899826349136123e-02 3.721400011538846669e-02 1.476799918991042633e-02 1.306100114906744679e-02 3.219599990543645096e-02 -1.477200081012260656e-02 1.306099891494364416e-02 3.219000006849298545e-02 2.345299914095694618e-02 1.407400181092160335e-02 3.720699985648463770e-02 2.453999887435558830e-02 1.468500185324953487e-02 -2.720000150125754905e-03 -1.534500104776803132e-02 1.328599883168239508e-02 -7.779999928568890298e-03 1.534599895219875866e-02 1.328600115284463840e-02 -7.786000097978775653e-03 -2.453900112530862931e-02 1.468099814139811436e-02 -2.713999879212771523e-03 -3.831494761083391513e-10 3.520999978853766189e-03 -2.117000000351704561e-02 -7.580002160652633304e-04 1.462999923595709661e-03 -1.909799999727730679e-02 -1.000492086788426609e-06 5.019999979580230115e-03 -2.036700000500884025e-02 7.559997836432511302e-04 1.467000038101917442e-03 -1.909600000563835970e-02 8.389996980235378370e-04 2.555000043775903888e-03 -1.970000000718328745e-02 -8.440003018031174602e-04 2.552999916494175930e-03 -1.969599999789137593e-02 3.999975142113834943e-06 -1.100000019250491025e-03 -1.957499999892331477e-02 -1.000024961115684558e-06 -1.099000019633636447e-03 -1.957999999889671605e-02 4.588999889630148918e-03 -9.399967419184435276e-05 -2.128300002523672227e-02 -3.212049255126357606e-09 3.941199995814195778e-02 -4.190500003936771523e-02 -4.590000110602236900e-03 -9.100036840297812981e-05 -2.128399997457296536e-02 -9.978108346557592697e-07 -2.908700000201036931e-02 -1.936999970940160099e-03
-1.000616707245743464e-06 3.599988881729496338e-05 -1.112320000000304315e-01 2.999978986816707766e-06 3.590000013376408255e-04 1.111999999624843638e-03 1.201290481170579061e-05 -1.706809999997861704e-01 -6.949998295770023257e-04 2.999978158756011040e-06 3.690000013246554165e-04 1.098999999614854893e-03 -3.659999687833217835e-04 -3.640000270134234649e-04 6.680000023838581673e-04 3.800000317554799397e-04 -3.719999706052378114e-04 6.559999982740369936e-04 -1.667000195289678388e-03 2.540999873360986344e-03 -5.639999933365460799e-04 1.648999803954009653e-03 2.551000124150920763e-03 -5.640000116503755909e-04 1.279999949187667627e-04 2.500000910332206397e-05 -5.780000007315133290e-04 -2.999994046629971726e-06 -9.200000040868609231e-05 -1.819999998915437930e-04 -1.470000039246991297e-04 9.999988308996761601e-06 -5.739999991985699716e-04 5.000006817350955440e-06 -1.069999998525889576e-04 -2.309999999207195092e-04 -3.769999720387182747e-04 -3.230000278733249496e-04 6.400000024036227092e-04 1.594999812569762717e-03 2.440000120106842335e-03 -5.240000112414281959e-04 -1.575000188638664596e-03 2.456999880372910065e-03 -5.099999937604671662e-04 3.830000282394967724e-04 -3.249999703713549615e-04 6.629999982105301299e-04 3.002313177216891130e-06 -2.781899996191259869e-02 3.790300002777118732e-02 -4.594999886630642821e-03 -1.090003284974231041e-04 1.904500002547261303e-02 3.996903233419321951e-06 4.075899999774128257e-02 -2.564000040735285677e-03 4.596000113957813930e-03 -1.169996333827217277e-04 1.904199997474761291e-02 4.100020169123233982e-05 -1.154999976208420176e-03 2.071400000092738641e-02 -3.599979755246486530e-05 -1.164999982031950012e-03 2.071400000136240649e-02 -8.480000816069404018e-04 2.581999956435405887e-03 2.059300000210173912e-02 8.459999177731007377e-04 2.591000084564049760e-03 2.060399999274211552e-02 6.910000015688728438e-04 1.525000073415717396e-03 2.117899999466249170e-02 -3.000265173853675034e-06 4.958000019642753303e-03 1.989199999506412880e-02 -6.959999986265425582e-04 1.526999968508558746e-03 2.117100000231653470e-02 1.999840626697815481e-06 3.505000019280741803e-03 1.915099999648790102e-02 -2.339000085652775951e-02 1.403599826810851894e-02 3.714200011508918958e-02 1.471599919236486927e-02 1.302300114505875947e-02 3.211999990576144132e-02 -1.471200080788401775e-02 1.302599891940754186e-02 3.211600006819674558e-02 2.338999914316406900e-02 1.404000180609097335e-02 3.714099985686635658e-02 2.448099887708602221e-02 1.464700184876138039e-02 -2.746000149762126055e-03 -1.528600104500777573e-02 1.324599883609663478e-02 -7.827999928854606493e-03 1.527799895470065457e-02 1.325000114766182804e-02 -7.826000097567464148e-03 -2.448000112276809553e-02 1.464499814582733567e-02 -2.746999879502483831e-03 -3.000383131268815653e-06 3.521999978643856107e-03 -2.115300000350148549e-02 -7.560002164047756627e-04 1.467999923753961992e-03 -1.909099999729333905e-02 3.999509383305586025e-06 5.000999979964374301e-03 -2.036100000501746277e-02 7.549997835251097151e-04 1.469000038032280487e-03 -1.909000000563483915e-02 8.439996987262896174e-04 2.546000044158051000e-03 -1.969600000720190050e-02 -8.390003011704761553e-04 2.544999916877321508e-03 -1.969099999791098371e-02 -8.000025348658943884e-06 -1.093000020151061813e-03 -1.956799999886406696e-02 6.999975391084020680e-06 -1.103000019019604715e-03 -1.957099999893687978e-02 4.576999889961917527e-03 -9.699967508042877068e-05 -2.126400002516748780e-02 2.996799424958921205e-06 3.926699995846073821e-02 -4.181300003923944797e-02 -4.579000109704064146e-03 -1.020003675590587229e-04 -2.127199997462269482e-02 -4.997816336880571003e-06 -2.901600000233686694e-02 -1.960999970989000737e-03
