9.190472709999999879e+00 0.000000000000000000e+00 0.000000000000000000e+00 0.000000000000000000e+00 1.591836636999999932e+01 0.000000000000000000e+00 0.000000000000000000e+00 0.000000000000000000e+00 2.244831997000000001e+01
9.190472709999999879e+00 0.000000000000000000e+00 0.000000000000000000e+00 0.000000000000000000e+00 1.591836636999999932e+01 0.000000000000000000e+00 0.000000000000000000e+00 0.000000000000000000e+00 2.244831997000000001e+01
9.190472709999999879e+00 0.000000000000000000e+00 0.000000000000000000e+00 0.000000000000000000e+00 1.591836636999999932e+01 0.000000000000000000e+00 0.000000000000000000e+00 0.000000000000000000e+00 2.244831997000000001e+01
9.190472709999999879e+00 0.000000000000000000e+00 0.000000000000000000e+00 0.000000000000000000e+00 1.591836636999999932e+01 0.000000000000000000e+00 0.000000000000000000e+00 0.000000000000000000e+00 2.244831997000000001e+01
9.190472709999999879e+00 0.000000000000000000e+00 0.000000000000000000e+00 0.000000000000000000e+00 1.591836636999999932e+01 0.000000000000000000e+00 0.000000000000000000e+00 0.000000000000000000e+00 2.244831997000000001e+01
