9.000000000000000567e-05 1.591765000000000008e+01 5.031500000000000306e+00 1.531840000000000090e+00 2.652350000000000207e+00 5.031500000000000306e+00 1.399999999999999877e-04 3.538050000000000139e+00 2.422050000000000036e+00 1.531889999999999974e+00 8.849900000000000544e-01 2.422050000000000036e+00 3.063579999999999970e+00 1.591765000000000008e+01 5.031500000000000306e+00 4.595329999999999693e+00 2.652350000000000207e+00 5.031500000000000306e+00 3.063629999999999853e+00 3.538050000000000139e+00 2.422050000000000036e+00 4.595379999999999576e+00 8.849900000000000544e-01 2.422050000000000036e+00 6.127069999999999794e+00 1.591765000000000008e+01 5.031500000000000306e+00 7.658820000000000405e+00 2.652350000000000207e+00 5.031500000000000306e+00 6.127119999999999678e+00 3.538050000000000139e+00 2.422050000000000036e+00 7.658870000000000289e+00 8.849900000000000544e-01 2.422050000000000036e+00 9.000000000000000567e-05 5.305410000000000181e+00 5.031500000000000306e+00 1.531840000000000090e+00 7.958470000000000155e+00 5.031500000000000306e+00 1.399999999999999877e-04 8.844170000000000087e+00 2.422050000000000036e+00 1.531889999999999974e+00 6.191110000000000113e+00 2.422050000000000036e+00 3.063579999999999970e+00 5.305410000000000181e+00 5.031500000000000306e+00 4.595329999999999693e+00 7.958470000000000155e+00 5.031500000000000306e+00 3.063629999999999853e+00 8.844170000000000087e+00 2.422050000000000036e+00 4.595379999999999576e+00 6.191110000000000113e+00 2.422050000000000036e+00 6.127069999999999794e+00 5.305410000000000181e+00 5.031500000000000306e+00 7.658820000000000405e+00 7.958470000000000155e+00 5.031500000000000306e+00 6.127119999999999678e+00 8.844170000000000087e+00 2.422050000000000036e+00 7.658870000000000289e+00 6.191110000000000113e+00 2.422050000000000036e+00 9.000000000000000567e-05 1.061153000000000013e+01 5.031500000000000306e+00 1.531840000000000090e+00 1.326459000000000010e+01 5.031500000000000306e+00 1.399999999999999877e-04 1.415029000000000003e+01 2.422050000000000036e+00 1.531889999999999974e+00 1.149723999999999968e+01 2.422050000000000036e+00 3.063579999999999970e+00 1.061153000000000013e+01 5.031500000000000306e+00 4.595329999999999693e+00 1.326459000000000010e+01 5.031500000000000306e+00 3.063629999999999853e+00 1.415029000000000003e+01 2.422050000000000036e+00 4.595379999999999576e+00 1.149723999999999968e+01 2.422050000000000036e+00 6.127069999999999794e+00 1.061153000000000013e+01 5.031500000000000306e+00 7.658820000000000405e+00 1.326459000000000010e+01 5.031500000000000306e+00 6.127119999999999678e+00 1.415029000000000003e+01 2.422050000000000036e+00 7.658870000000000289e+00 1.149723999999999968e+01 2.422050000000000036e+00 9.000000000000000567e-05 1.591765000000000008e+01 1.251426999999999978e+01 1.531840000000000090e+00 2.652350000000000207e+00 1.251427999999999940e+01 1.399999999999999877e-04 3.538050000000000139e+00 9.904830000000000467e+00 1.531889999999999974e+00 8.849900000000000544e-01 9.904820000000000846e+00 3.063579999999999970e+00 1.591765000000000008e+01 1.251426999999999978e+01 4.595329999999999693e+00 2.652350000000000207e+00 1.251427999999999940e+01 3.063629999999999853e+00 3.538050000000000139e+00 9.904830000000000467e+00 4.595379999999999576e+00 8.849900000000000544e-01 9.904820000000000846e+00 6.127069999999999794e+00 1.591765000000000008e+01 1.251426999999999978e+01 7.658820000000000405e+00 2.652350000000000207e+00 1.251427999999999940e+01 6.127119999999999678e+00 3.538050000000000139e+00 9.904830000000000467e+00 7.658870000000000289e+00 8.849900000000000544e-01 9.904820000000000846e+00 9.000000000000000567e-05 5.305410000000000181e+00 1.251426999999999978e+01 1.531840000000000090e+00 7.958470000000000155e+00 1.251427999999999940e+01 1.399999999999999877e-04 8.844170000000000087e+00 9.904830000000000467e+00 1.531889999999999974e+00 6.191110000000000113e+00 9.904820000000000846e+00 3.063579999999999970e+00 5.305410000000000181e+00 1.251426999999999978e+01 4.595329999999999693e+00 7.958470000000000155e+00 1.251427999999999940e+01 3.063629999999999853e+00 8.844170000000000087e+00 9.904830000000000467e+00 4.595379999999999576e+00 6.191110000000000113e+00 9.904820000000000846e+00 6.127069999999999794e+00 5.305410000000000181e+00 1.251426999999999978e+01 7.658820000000000405e+00 7.958470000000000155e+00 1.251427999999999940e+01 6.127119999999999678e+00 8.844170000000000087e+00 9.904830000000000467e+00 7.658870000000000289e+00 6.191110000000000113e+00 9.904820000000000846e+00 9.000000000000000567e-05 1.061153000000000013e+01 1.251426999999999978e+01 1.531840000000000090e+00 1.326459000000000010e+01 1.251427999999999940e+01 1.399999999999999877e-04 1.415029000000000003e+01 9.904830000000000467e+00 1.531889999999999974e+00 1.149723999999999968e+01 9.904820000000000846e+00 3.063579999999999970e+00 1.061153000000000013e+01 1.251426999999999978e+01 4.595329999999999693e+00 1.326459000000000010e+01 1.251427999999999940e+01 3.063629999999999853e+00 1.415029000000000003e+01 9.904830000000000467e+00 4.595379999999999576e+00 1.149723999999999968e+01 9.904820000000000846e+00 6.127069999999999794e+00 1.061153000000000013e+01 1.251426999999999978e+01 7.658820000000000405e+00 1.326459000000000010e+01 1.251427999999999940e+01 6.127119999999999678e+00 1.415029000000000003e+01 9.904830000000000467e+00 7.658870000000000289e+00 1.149723999999999968e+01 9.904820000000000846e+00 9.000000000000000567e-05 1.591765000000000008e+01 1.999703999999999837e+01 1.531840000000000090e+00 2.652350000000000207e+00 1.999705000000000155e+01 1.399999999999999877e-04 3.538050000000000139e+00 1.738759999999999906e+01 1.531889999999999974e+00 8.849900000000000544e-01 1.738759999999999906e+01 3.063579999999999970e+00 1.591765000000000008e+01 1.999703999999999837e+01 4.595329999999999693e+00 2.652350000000000207e+00 1.999705000000000155e+01 3.063629999999999853e+00 3.538050000000000139e+00 1.738759999999999906e+01 4.595379999999999576e+00 8.849900000000000544e-01 1.738759999999999906e+01 6.127069999999999794e+00 1.591765000000000008e+01 1.999703999999999837e+01 7.658820000000000405e+00 2.652350000000000207e+00 1.999705000000000155e+01 6.127119999999999678e+00 3.538050000000000139e+00 1.738759999999999906e+01 7.658870000000000289e+00 8.849900000000000544e-01 1.738759999999999906e+01 9.000000000000000567e-05 5.305410000000000181e+00 1.999703999999999837e+01 1.531840000000000090e+00 7.958470000000000155e+00 1.999705000000000155e+01 1.399999999999999877e-04 8.844170000000000087e+00 1.738759999999999906e+01 1.531889999999999974e+00 6.191110000000000113e+00 1.738759999999999906e+01 3.063579999999999970e+00 5.305410000000000181e+00 1.999703999999999837e+01 4.595329999999999693e+00 7.958470000000000155e+00 1.999705000000000155e+01 3.063629999999999853e+00 8.844170000000000087e+00 1.738759999999999906e+01 4.595379999999999576e+00 6.191110000000000113e+00 1.738759999999999906e+01 6.127069999999999794e+00 5.305410000000000181e+00 1.999703999999999837e+01 7.658820000000000405e+00 7.958470000000000155e+00 1.999705000000000155e+01 6.127119999999999678e+00 8.844170000000000087e+00 1.738759999999999906e+01 7.658870000000000289e+00 6.191110000000000113e+00 1.738759999999999906e+01 9.000000000000000567e-05 1.061153000000000013e+01 1.999703999999999837e+01 1.531840000000000090e+00 1.326459000000000010e+01 1.999705000000000155e+01 1.399999999999999877e-04 1.415029000000000003e+01 1.738759999999999906e+01 1.531889999999999974e+00 1.149723999999999968e+01 1.738759999999999906e+01 3.063579999999999970e+00 1.061153000000000013e+01 1.999703999999999837e+01 4.595329999999999693e+00 1.326459000000000010e+01 1.999705000000000155e+01 3.063629999999999853e+00 1.415029000000000003e+01 1.738759999999999906e+01 4.595379999999999576e+00 1.149723999999999968e+01 1.738759999999999906e+01 6.127069999999999794e+00 1.061153000000000013e+01 1.999703999999999837e+01 7.658820000000000405e+00 1.326459000000000010e+01 1.999705000000000155e+01 6.127119999999999678e+00 1.415029000000000003e+01 1.738759999999999906e+01 7.658870000000000289e+00 1.149723999999999968e+01 1.738759999999999906e+01 1.200000000000000030e-04 1.768659999999999899e+00 3.726710000000000189e+00 1.100000000000000039e-04 3.536399999999999988e+00 6.111019999999999897e+00 1.531910000000000105e+00 2.653979999999999784e+00 1.342449999999999921e+00 1.600000000000000131e-04 9.200000000000000278e-04 1.342449999999999921e+00 1.531870000000000065e+00 4.421739999999999782e+00 3.726719999999999811e+00 1.531859999999999999e+00 8.833299999999999486e-01 6.111040000000000028e+00 3.063619999999999788e+00 1.768659999999999899e+00 3.726710000000000189e+00 3.063610000000000166e+00 3.536399999999999988e+00 6.111019999999999897e+00 4.595399999999999707e+00 2.653979999999999784e+00 1.342449999999999921e+00 3.063649999999999984e+00 9.200000000000000278e-04 1.342449999999999921e+00 4.595360000000000333e+00 4.421739999999999782e+00 3.726719999999999811e+00 4.595349999999999824e+00 8.833299999999999486e-01 6.111040000000000028e+00 6.127110000000000056e+00 1.768659999999999899e+00 3.726710000000000189e+00 6.127100000000000435e+00 3.536399999999999988e+00 6.111019999999999897e+00 7.658890000000000420e+00 2.653979999999999784e+00 1.342449999999999921e+00 6.127139999999999809e+00 9.200000000000000278e-04 1.342449999999999921e+00 7.658850000000000158e+00 4.421739999999999782e+00 3.726719999999999811e+00 7.658839999999999648e+00 8.833299999999999486e-01 6.111040000000000028e+00 1.200000000000000030e-04 7.074779999999999625e+00 3.726710000000000189e+00 1.100000000000000039e-04 8.842520000000000380e+00 6.111019999999999897e+00 1.531910000000000105e+00 7.960099999999999731e+00 1.342449999999999921e+00 1.600000000000000131e-04 5.307039999999999758e+00 1.342449999999999921e+00 1.531870000000000065e+00 9.727859999999999729e+00 3.726719999999999811e+00 1.531859999999999999e+00 6.189449999999999896e+00 6.111040000000000028e+00 3.063619999999999788e+00 7.074779999999999625e+00 3.726710000000000189e+00 3.063610000000000166e+00 8.842520000000000380e+00 6.111019999999999897e+00 4.595399999999999707e+00 7.960099999999999731e+00 1.342449999999999921e+00 3.063649999999999984e+00 5.307039999999999758e+00 1.342449999999999921e+00 4.595360000000000333e+00 9.727859999999999729e+00 3.726719999999999811e+00 4.595349999999999824e+00 6.189449999999999896e+00 6.111040000000000028e+00 6.127110000000000056e+00 7.074779999999999625e+00 3.726710000000000189e+00 6.127100000000000435e+00 8.842520000000000380e+00 6.111019999999999897e+00 7.658890000000000420e+00 7.960099999999999731e+00 1.342449999999999921e+00 6.127139999999999809e+00 5.307039999999999758e+00 1.342449999999999921e+00 7.658850000000000158e+00 9.727859999999999729e+00 3.726719999999999811e+00 7.658839999999999648e+00 6.189449999999999896e+00 6.111040000000000028e+00 1.200000000000000030e-04 1.238090000000000046e+01 3.726710000000000189e+00 1.100000000000000039e-04 1.414864999999999995e+01 6.111019999999999897e+00 1.531910000000000105e+00 1.326622000000000057e+01 1.342449999999999921e+00 1.600000000000000131e-04 1.061316000000000059e+01 1.342449999999999921e+00 1.531870000000000065e+00 1.503398999999999930e+01 3.726719999999999811e+00 1.531859999999999999e+00 1.149557000000000073e+01 6.111040000000000028e+00 3.063619999999999788e+00 1.238090000000000046e+01 3.726710000000000189e+00 3.063610000000000166e+00 1.414864999999999995e+01 6.111019999999999897e+00 4.595399999999999707e+00 1.326622000000000057e+01 1.342449999999999921e+00 3.063649999999999984e+00 1.061316000000000059e+01 1.342449999999999921e+00 4.595360000000000333e+00 1.503398999999999930e+01 3.726719999999999811e+00 4.595349999999999824e+00 1.149557000000000073e+01 6.111040000000000028e+00 6.127110000000000056e+00 1.238090000000000046e+01 3.726710000000000189e+00 6.127100000000000435e+00 1.414864999999999995e+01 6.111019999999999897e+00 7.658890000000000420e+00 1.326622000000000057e+01 1.342449999999999921e+00 6.127139999999999809e+00 1.061316000000000059e+01 1.342449999999999921e+00 7.658850000000000158e+00 1.503398999999999930e+01 3.726719999999999811e+00 7.658839999999999648e+00 1.149557000000000073e+01 6.111040000000000028e+00 1.200000000000000030e-04 1.768659999999999899e+00 1.120947999999999922e+01 1.100000000000000039e-04 3.536399999999999988e+00 1.359379999999999988e+01 1.531910000000000105e+00 2.653979999999999784e+00 8.825219999999999843e+00 1.600000000000000131e-04 9.200000000000000278e-04 8.825219999999999843e+00 1.531870000000000065e+00 4.421739999999999782e+00 1.120949000000000062e+01 1.531859999999999999e+00 8.833299999999999486e-01 1.359381999999999913e+01 3.063619999999999788e+00 1.768659999999999899e+00 1.120947999999999922e+01 3.063610000000000166e+00 3.536399999999999988e+00 1.359379999999999988e+01 4.595399999999999707e+00 2.653979999999999784e+00 8.825219999999999843e+00 3.063649999999999984e+00 9.200000000000000278e-04 8.825219999999999843e+00 4.595360000000000333e+00 4.421739999999999782e+00 1.120949000000000062e+01 4.595349999999999824e+00 8.833299999999999486e-01 1.359381999999999913e+01 6.127110000000000056e+00 1.768659999999999899e+00 1.120947999999999922e+01 6.127100000000000435e+00 3.536399999999999988e+00 1.359379999999999988e+01 7.658890000000000420e+00 2.653979999999999784e+00 8.825219999999999843e+00 6.127139999999999809e+00 9.200000000000000278e-04 8.825219999999999843e+00 7.658850000000000158e+00 4.421739999999999782e+00 1.120949000000000062e+01 7.658839999999999648e+00 8.833299999999999486e-01 1.359381999999999913e+01 1.200000000000000030e-04 7.074779999999999625e+00 1.120947999999999922e+01 1.100000000000000039e-04 8.842520000000000380e+00 1.359379999999999988e+01 1.531910000000000105e+00 7.960099999999999731e+00 8.825219999999999843e+00 1.600000000000000131e-04 5.307039999999999758e+00 8.825219999999999843e+00 1.531870000000000065e+00 9.727859999999999729e+00 1.120949000000000062e+01 1.531859999999999999e+00 6.189449999999999896e+00 1.359381999999999913e+01 3.063619999999999788e+00 7.074779999999999625e+00 1.120947999999999922e+01 3.063610000000000166e+00 8.842520000000000380e+00 1.359379999999999988e+01 4.595399999999999707e+00 7.960099999999999731e+00 8.825219999999999843e+00 3.063649999999999984e+00 5.307039999999999758e+00 8.825219999999999843e+00 4.595360000000000333e+00 9.727859999999999729e+00 1.120949000000000062e+01 4.595349999999999824e+00 6.189449999999999896e+00 1.359381999999999913e+01 6.127110000000000056e+00 7.074779999999999625e+00 1.120947999999999922e+01 6.127100000000000435e+00 8.842520000000000380e+00 1.359379999999999988e+01 7.658890000000000420e+00 7.960099999999999731e+00 8.825219999999999843e+00 6.127139999999999809e+00 5.307039999999999758e+00 8.825219999999999843e+00 7.658850000000000158e+00 9.727859999999999729e+00 1.120949000000000062e+01 7.658839999999999648e+00 6.189449999999999896e+00 1.359381999999999913e+01 1.200000000000000030e-04 1.238090000000000046e+01 1.120947999999999922e+01 1.100000000000000039e-04 1.414864999999999995e+01 1.359379999999999988e+01 1.531910000000000105e+00 1.326622000000000057e+01 8.825219999999999843e+00 1.600000000000000131e-04 1.061316000000000059e+01 8.825219999999999843e+00 1.531870000000000065e+00 1.503398999999999930e+01 1.120949000000000062e+01 1.531859999999999999e+00 1.149557000000000073e+01 1.359381999999999913e+01 3.063619999999999788e+00 1.238090000000000046e+01 1.120947999999999922e+01 3.063610000000000166e+00 1.414864999999999995e+01 1.359379999999999988e+01 4.595399999999999707e+00 1.326622000000000057e+01 8.825219999999999843e+00 3.063649999999999984e+00 1.061316000000000059e+01 8.825219999999999843e+00 4.595360000000000333e+00 1.503398999999999930e+01 1.120949000000000062e+01 4.595349999999999824e+00 1.149557000000000073e+01 1.359381999999999913e+01 6.127110000000000056e+00 1.238090000000000046e+01 1.120947999999999922e+01 6.127100000000000435e+00 1.414864999999999995e+01 1.359379999999999988e+01 7.658890000000000420e+00 1.326622000000000057e+01 8.825219999999999843e+00 6.127139999999999809e+00 1.061316000000000059e+01 8.825219999999999843e+00 7.658850000000000158e+00 1.503398999999999930e+01 1.120949000000000062e+01 7.658839999999999648e+00 1.149557000000000073e+01 1.359381999999999913e+01 1.200000000000000030e-04 1.768659999999999899e+00 1.869225000000000136e+01 1.100000000000000039e-04 3.536399999999999988e+00 2.107657000000000025e+01 1.531910000000000105e+00 2.653979999999999784e+00 1.630799999999999983e+01 1.600000000000000131e-04 9.200000000000000278e-04 1.630799000000000021e+01 1.531870000000000065e+00 4.421739999999999782e+00 1.869226000000000099e+01 1.531859999999999999e+00 8.833299999999999486e-01 2.107658999999999949e+01 3.063619999999999788e+00 1.768659999999999899e+00 1.869225000000000136e+01 3.063610000000000166e+00 3.536399999999999988e+00 2.107657000000000025e+01 4.595399999999999707e+00 2.653979999999999784e+00 1.630799999999999983e+01 3.063649999999999984e+00 9.200000000000000278e-04 1.630799000000000021e+01 4.595360000000000333e+00 4.421739999999999782e+00 1.869226000000000099e+01 4.595349999999999824e+00 8.833299999999999486e-01 2.107658999999999949e+01 6.127110000000000056e+00 1.768659999999999899e+00 1.869225000000000136e+01 6.127100000000000435e+00 3.536399999999999988e+00 2.107657000000000025e+01 7.658890000000000420e+00 2.653979999999999784e+00 1.630799999999999983e+01 6.127139999999999809e+00 9.200000000000000278e-04 1.630799000000000021e+01 7.658850000000000158e+00 4.421739999999999782e+00 1.869226000000000099e+01 7.658839999999999648e+00 8.833299999999999486e-01 2.107658999999999949e+01 1.200000000000000030e-04 7.074779999999999625e+00 1.869225000000000136e+01 1.100000000000000039e-04 8.842520000000000380e+00 2.107657000000000025e+01 1.531910000000000105e+00 7.960099999999999731e+00 1.630799999999999983e+01 1.600000000000000131e-04 5.307039999999999758e+00 1.630799000000000021e+01 1.531870000000000065e+00 9.727859999999999729e+00 1.869226000000000099e+01 1.531859999999999999e+00 6.189449999999999896e+00 2.107658999999999949e+01 3.063619999999999788e+00 7.074779999999999625e+00 1.869225000000000136e+01 3.063610000000000166e+00 8.842520000000000380e+00 2.107657000000000025e+01 4.595399999999999707e+00 7.960099999999999731e+00 1.630799999999999983e+01 3.063649999999999984e+00 5.307039999999999758e+00 1.630799000000000021e+01 4.595360000000000333e+00 9.727859999999999729e+00 1.869226000000000099e+01 4.595349999999999824e+00 6.189449999999999896e+00 2.107658999999999949e+01 6.127110000000000056e+00 7.074779999999999625e+00 1.869225000000000136e+01 6.127100000000000435e+00 8.842520000000000380e+00 2.107657000000000025e+01 7.658890000000000420e+00 7.960099999999999731e+00 1.630799999999999983e+01 6.127139999999999809e+00 5.307039999999999758e+00 1.630799000000000021e+01 7.658850000000000158e+00 9.727859999999999729e+00 1.869226000000000099e+01 7.658839999999999648e+00 6.189449999999999896e+00 2.107658999999999949e+01 1.200000000000000030e-04 1.238090000000000046e+01 1.869225000000000136e+01 1.100000000000000039e-04 1.414864999999999995e+01 2.107657000000000025e+01 1.531910000000000105e+00 1.326622000000000057e+01 1.630799999999999983e+01 1.600000000000000131e-04 1.061316000000000059e+01 1.630799000000000021e+01 1.531870000000000065e+00 1.503398999999999930e+01 1.869226000000000099e+01 1.531859999999999999e+00 1.149557000000000073e+01 2.107658999999999949e+01 3.063619999999999788e+00 1.238090000000000046e+01 1.869225000000000136e+01 3.063610000000000166e+00 1.414864999999999995e+01 2.107657000000000025e+01 4.595399999999999707e+00 1.326622000000000057e+01 1.630799999999999983e+01 3.063649999999999984e+00 1.061316000000000059e+01 1.630799000000000021e+01 4.595360000000000333e+00 1.503398999999999930e+01 1.869226000000000099e+01 4.595349999999999824e+00 1.149557000000000073e+01 2.107658999999999949e+01 6.127110000000000056e+00 1.238090000000000046e+01 1.869225000000000136e+01 6.127100000000000435e+00 1.414864999999999995e+01 2.107657000000000025e+01 7.658890000000000420e+00 1.326622000000000057e+01 1.630799999999999983e+01 6.127139999999999809e+00 1.061316000000000059e+01 1.630799000000000021e+01 7.658850000000000158e+00 1.503398999999999930e+01 1.869226000000000099e+01 7.658839999999999648e+00 1.149557000000000073e+01 2.107658999999999949e+01