-2.824269512039999881e+03
-2.824232701880000150e+03
-2.824122104770000078e+03
-2.823938589840000077e+03
-2.823683370490000016e+03
