3.759999999999999779e-04 2.942999999999999870e-03 -7.129999999999999836e-04 9.499999999999999981e-04 3.477000000000000056e-03 -1.026000000000000002e-03 1.039999999999999936e-04 -2.442999999999999859e-03 2.229999999999999994e-04 2.049999999999999956e-04 -3.350999999999999812e-03 1.056999999999999997e-03 4.719999999999999803e-04 3.118000000000000112e-03 -8.909999999999999734e-04 4.220000000000000118e-04 3.533999999999999815e-03 -9.020000000000000240e-04 1.269999999999999970e-04 -3.108000000000000086e-03 9.300000000000000541e-04 1.140000000000000063e-04 -3.677000000000000147e-03 1.080000000000000014e-03 3.780000000000000265e-04 3.118999999999999811e-03 -9.959999999999999236e-04 -1.489999999999999897e-04 3.426999999999999925e-03 -8.949999999999999623e-04 4.300000000000000165e-05 -3.173000000000000039e-03 8.989999999999999511e-04 -2.210000000000000050e-04 -3.405000000000000041e-03 9.950000000000000077e-04 4.400000000000000157e-04 2.393999999999999861e-03 -8.940000000000000464e-04 3.159999999999999832e-04 2.981000000000000143e-03 -1.214000000000000018e-03 -2.699999999999999899e-05 -3.644999999999999803e-03 2.629999999999999959e-04 5.599999999999999916e-05 -3.122000000000000209e-03 8.580000000000000387e-04 -3.339999999999999870e-04 2.425000000000000072e-03 -8.970000000000000109e-04 4.290000000000000193e-04 2.886000000000000110e-03 -1.087999999999999991e-03 -2.239999999999999966e-04 -3.330000000000000061e-03 5.109999999999999525e-04 -3.000000000000000076e-06 -3.271000000000000036e-03 4.420000000000000101e-04 1.131999999999999977e-03 2.334000000000000137e-03 -8.679999999999999565e-04 4.979999999999999618e-04 3.049000000000000061e-03 -1.219000000000000031e-03 4.310000000000000137e-04 -3.433999999999999986e-03 4.260000000000000006e-04 5.000000000000000240e-05 -2.993000000000000001e-03 8.459999999999999638e-04 3.449999999999999833e-04 4.056999999999999842e-03 -8.739999999999999939e-04 1.105999999999999995e-03 2.703000000000000107e-03 -7.050000000000000060e-04 3.199999999999999855e-05 -3.161999999999999880e-03 7.799999999999999859e-04 -1.489999999999999897e-04 -3.301999999999999814e-03 7.230000000000000098e-04 -3.199999999999999855e-05 3.994000000000000154e-03 -8.930000000000000221e-04 3.930000000000000117e-04 2.650000000000000012e-03 -7.309999999999999875e-04 2.699999999999999899e-05 -3.034999999999999937e-03 1.340000000000000045e-03 1.060000000000000016e-04 -2.595999999999999783e-03 2.759999999999999867e-04 9.290000000000000297e-04 4.033000000000000126e-03 -8.480000000000000124e-04 -2.599999999999999772e-04 2.699000000000000010e-03 -7.339999999999999520e-04 1.359999999999999989e-04 -2.920999999999999985e-03 1.289999999999999914e-03 2.460000000000000164e-04 -3.351999999999999945e-03 8.130000000000000291e-04 4.009999999999999893e-04 3.118999999999999811e-03 -7.100000000000000191e-04 9.309999999999999699e-04 3.582999999999999814e-03 -8.099999999999999561e-04 5.899999999999999754e-05 -2.541999999999999989e-03 6.620000000000000450e-04 2.999999999999999737e-04 -3.652999999999999997e-03 9.340000000000000429e-04 5.540000000000000219e-04 3.284000000000000027e-03 -7.860000000000000233e-04 5.140000000000000254e-04 3.625999999999999883e-03 -6.489999999999999459e-04 2.709999999999999735e-04 -3.225000000000000002e-03 1.222999999999999912e-03 1.099999999999999971e-05 -3.860999999999999849e-03 9.709999999999999664e-04 2.649999999999999903e-04 3.301999999999999814e-03 -7.990000000000000140e-04 -2.210000000000000050e-04 3.605000000000000131e-03 -6.809999999999999647e-04 -5.899999999999999754e-05 -3.236999999999999860e-03 1.258000000000000004e-03 -2.120000000000000031e-04 -3.575000000000000053e-03 1.026000000000000002e-03 3.660000000000000059e-04 2.330000000000000040e-03 -7.979999999999999897e-04 3.789999999999999966e-04 2.857000000000000164e-03 -1.113999999999999973e-03 1.219999999999999974e-04 -3.612999999999999892e-03 6.750000000000000357e-04 1.169999999999999979e-04 -3.132999999999999934e-03 1.340999999999999961e-03 -2.380000000000000117e-04 2.389000000000000064e-03 -8.239999999999999712e-04 3.490000000000000263e-04 2.687000000000000152e-03 -9.579999999999999757e-04 -2.610000000000000015e-04 -3.243999999999999922e-03 7.730000000000000326e-04 9.999999999999999547e-07 -3.449999999999999942e-03 9.229999999999999923e-04 1.108000000000000044e-03 2.220999999999999884e-03 -7.420000000000000380e-04 5.050000000000000235e-04 2.821000000000000157e-03 -1.123000000000000083e-03 3.209999999999999963e-04 -3.249000000000000152e-03 6.930000000000000396e-04 -6.999999999999999895e-06 -3.210000000000000180e-03 1.428000000000000016e-03 3.640000000000000115e-04 4.096999999999999947e-03 -5.689999999999999529e-04 1.149999999999999981e-03 2.629999999999999959e-03 -7.140000000000000079e-04 7.100000000000000462e-05 -3.200000000000000153e-03 2.010000000000000068e-04 -4.699999999999999724e-05 -2.919999999999999853e-03 5.500000000000000331e-04 -7.299999999999999903e-05 3.962000000000000244e-03 -5.439999999999999957e-04 4.330000000000000081e-04 2.618999999999999800e-03 -6.199999999999999999e-04 6.399999999999999710e-05 -3.007999999999999823e-03 6.809999999999999647e-04 1.190000000000000058e-04 -2.197999999999999867e-03 -1.210000000000000002e-04 9.479999999999999495e-04 4.096999999999999947e-03 -5.659999999999999884e-04 -3.350000000000000113e-04 2.579999999999999828e-03 -6.669999999999999497e-04 6.000000000000000152e-05 -3.073000000000000211e-03 6.989999999999999686e-04 1.140000000000000063e-04 -2.919000000000000154e-03 5.240000000000000517e-04 2.970000000000000092e-04 3.141000000000000129e-03 -6.589999999999999721e-04 9.430000000000000448e-04 4.036999999999999790e-03 -9.359999999999999831e-04 6.499999999999999431e-05 -2.271000000000000015e-03 -6.299999999999999990e-05 3.190000000000000019e-04 -3.191999999999999959e-03 3.260000000000000094e-04 5.559999999999999621e-04 3.220000000000000206e-03 -8.880000000000000089e-04 3.849999999999999798e-04 4.055999999999999710e-03 -8.440000000000000236e-04 2.210000000000000050e-04 -3.020000000000000115e-03 5.400000000000000069e-04 4.399999999999999886e-05 -3.530999999999999851e-03 2.110000000000000059e-04 3.829999999999999854e-04 3.248000000000000019e-03 -8.210000000000000067e-04 -1.169999999999999979e-04 3.880999999999999901e-03 -8.610000000000000032e-04 -1.200000000000000030e-05 -3.001999999999999894e-03 5.010000000000000347e-04 -2.719999999999999979e-04 -3.184999999999999897e-03 4.070000000000000267e-04 4.009999999999999893e-04 2.827999999999999785e-03 -7.979999999999999897e-04 3.269999999999999795e-04 3.095000000000000095e-03 -8.159999999999999936e-04 2.039999999999999984e-04 -3.759999999999999887e-03 7.810000000000000102e-04 3.100000000000000135e-05 -3.033999999999999805e-03 1.033000000000000064e-03 -2.469999999999999865e-04 2.805999999999999901e-03 -7.380000000000000492e-04 3.699999999999999947e-04 2.854999999999999899e-03 -6.579999999999999478e-04 -3.170000000000000075e-04 -3.377999999999999926e-03 8.019999999999999785e-04 2.099999999999999884e-05 -3.363000000000000104e-03 6.849999999999999535e-04 1.098000000000000018e-03 2.808000000000000166e-03 -7.960000000000000495e-04 5.310000000000000050e-04 3.056999999999999822e-03 -7.540000000000000044e-04 3.049999999999999868e-04 -3.418000000000000031e-03 8.739999999999999939e-04 5.099999999999999960e-05 -3.207000000000000215e-03 1.168999999999999900e-03 5.330000000000000536e-04 3.524999999999999922e-03 -3.719999999999999891e-04 1.165999999999999936e-03 2.017999999999999829e-03 -5.199999999999999544e-04 -1.800000000000000046e-05 -3.144999999999999792e-03 3.280000000000000038e-04 -2.199999999999999943e-05 -3.560999999999999929e-03 7.669999999999999951e-04 -1.700000000000000122e-04 3.491000000000000179e-03 -4.079999999999999968e-04 4.040000000000000080e-04 2.099000000000000171e-03 -6.089999999999999494e-04 1.230000000000000082e-04 -2.900999999999999933e-03 7.659999999999999708e-04 6.899999999999999667e-05 -2.779999999999999919e-03 7.799999999999999859e-05 8.809999999999999472e-04 3.491000000000000179e-03 -5.220000000000000031e-04 -3.299999999999999982e-04 2.227999999999999946e-03 -6.359999999999999551e-04 8.399999999999999535e-05 -2.949999999999999931e-03 6.960000000000000041e-04 1.450000000000000009e-04 -3.454000000000000039e-03 7.010000000000000172e-04 -1.240000000000000054e-04 -2.449999999999999921e-04 1.525000000000000097e-03 -2.489999999999999809e-04 -1.691999999999999928e-03 -1.281000000000000021e-03 -1.667000000000000079e-03 2.386999999999999799e-03 1.074000000000000085e-03 -4.479999999999999933e-04 1.405999999999999915e-03 1.495000000000000018e-03 -1.740000000000000010e-04 2.599999999999999772e-04 1.140000000000000063e-04 -4.609999999999999840e-04 -2.060000000000000199e-03 -7.879999999999999635e-04 -3.029999999999999924e-04 1.039999999999999936e-04 1.832999999999999994e-03 -2.480000000000000108e-04 -1.520000000000000084e-03 -7.140000000000000079e-04 -1.100000000000000039e-04 2.360999999999999818e-03 8.310000000000000329e-04 -9.690000000000000262e-04 7.500000000000000156e-04 1.440000000000000091e-03 -5.000000000000000240e-05 5.839999999999999922e-04 5.700000000000000314e-05 -2.610000000000000015e-04 -2.279999999999999909e-03 -4.500000000000000283e-05 2.010000000000000068e-04 6.000000000000000152e-05 1.709999999999999932e-03 1.699999999999999987e-05 -1.596999999999999895e-03 -6.480000000000000300e-04 1.020000000000000073e-03 2.141000000000000108e-03 9.870000000000000301e-04 7.269999999999999987e-04 7.820000000000000345e-04 1.428000000000000016e-03 -2.500000000000000120e-05 1.129999999999999955e-04 6.099999999999999872e-05 1.100000000000000039e-04 -1.954000000000000008e-03 -8.170000000000000179e-04 -1.399999999999999877e-04 8.600000000000000331e-05 -2.059999999999999928e-04 -2.190000000000000106e-04 -1.420999999999999954e-03 -7.749999999999999728e-04 2.519999999999999996e-04 1.458000000000000095e-03 3.400000000000000244e-04 -2.339999999999999958e-04 2.243999999999999901e-03 2.680000000000000090e-04 -1.699999999999999987e-05 -4.449999999999999746e-04 2.550000000000000183e-04 -5.079999999999999880e-04 -1.363999999999999978e-03 -1.755000000000000050e-03 -6.089999999999999494e-04 9.600000000000000243e-05 5.300000000000000078e-05 9.699999999999999963e-05 -1.007000000000000083e-03 -1.322000000000000041e-03 -2.220000000000000022e-04 1.935000000000000088e-03 5.050000000000000235e-04 3.589999999999999984e-04 2.304000000000000058e-03 4.220000000000000118e-04 -1.000000000000000082e-05 -6.380000000000000037e-04 2.239999999999999966e-04 -1.250000000000000026e-04 -1.291000000000000047e-03 -1.168999999999999900e-03 4.270000000000000249e-04 1.600000000000000131e-04 1.299999999999999920e-05 -4.110000000000000155e-04 -8.700000000000000051e-04 -1.443999999999999971e-03 -7.630000000000000063e-04 1.489000000000000089e-03 4.769999999999999934e-04 -8.409999999999999507e-04 2.387999999999999932e-03 4.090000000000000211e-04 -1.730000000000000038e-04 -4.739999999999999747e-04 2.820000000000000241e-04 1.410000000000000120e-04 -1.415999999999999941e-03 -1.732999999999999948e-03 -1.190000000000000058e-04 4.550000000000000008e-04 1.368000000000000075e-03 -9.799999999999999684e-05 -1.072000000000000036e-03 5.100000000000000366e-04 -1.147999999999999932e-03 7.230000000000000098e-04 8.199999999999999824e-04 -2.000000000000000096e-04 9.179999999999999792e-04 2.359999999999999902e-04 2.169999999999999891e-04 -5.330000000000000536e-04 1.956999999999999972e-03 9.999999999999999547e-07 -4.899999999999999842e-05 -1.250000000000000026e-04 -3.600000000000000091e-05 9.000000000000000567e-05 1.613999999999999983e-03 1.350000000000000017e-04 -1.294999999999999927e-03 -1.099999999999999971e-05 -1.759999999999999954e-04 6.430000000000000169e-04 6.780000000000000002e-04 7.439999999999999782e-04 9.749999999999999552e-04 3.499999999999999964e-04 -4.800000000000000122e-05 -5.590000000000000351e-04 1.771000000000000005e-03 -8.299999999999999815e-05 -1.869999999999999917e-04 -9.709999999999999664e-04 -1.240000000000000054e-04 8.000000000000000654e-05 1.704000000000000003e-03 -5.310000000000000050e-04 -1.343999999999999926e-03 -2.099999999999999884e-05 6.409999999999999682e-04 8.679999999999999565e-04 8.710000000000000294e-04 -1.271999999999999910e-03 8.599999999999999789e-04 4.749999999999999990e-04 -4.870000000000000197e-04 -5.069999999999999637e-04 1.806000000000000097e-03 -3.710000000000000190e-04 -6.999999999999999387e-05 -4.319999999999999838e-04 -1.129999999999999955e-04 -1.137999999999999906e-03 9.449999999999999850e-04 -2.280000000000000126e-04 -1.979999999999999989e-03 -1.317999999999999944e-03 -1.322999999999999957e-03 7.950000000000000252e-04 1.131000000000000061e-03 -9.600000000000000243e-05 3.690000000000000246e-04 6.120000000000000223e-04 -1.110000000000000011e-04 -6.939999999999999555e-04 1.196000000000000014e-03 -2.889999999999999774e-04 -1.389000000000000044e-03 -1.203000000000000076e-03 -1.440000000000000036e-04 -8.729999999999999696e-04 1.132999999999999893e-03 -1.820000000000000057e-04 -1.938000000000000052e-03 -9.380000000000000317e-04 -2.059999999999999928e-04 1.072000000000000036e-03 1.123999999999999999e-03 -9.829999999999999329e-04 -6.700000000000000226e-05 7.110000000000000434e-04 7.999999999999999638e-06 -3.829999999999999854e-04 9.349999999999999587e-04 -6.000000000000000152e-05 -1.776000000000000018e-03 -3.919999999999999873e-04 -9.999999999999999547e-07 -7.810000000000000102e-04 1.216999999999999983e-03 -2.699999999999999899e-05 -1.951000000000000043e-03 -9.150000000000000147e-04 8.909999999999999734e-04 9.070000000000000371e-04 1.252000000000000075e-03 4.449999999999999746e-04 -5.700000000000000314e-05 5.919999999999999698e-04 -1.399999999999999877e-04 -7.669999999999999951e-04 1.195000000000000099e-03 -1.129999999999999955e-04 -1.322000000000000041e-03 -1.057999999999999913e-03 -7.600000000000000418e-05 -3.899999999999999929e-05 1.191000000000000001e-03 -1.279999999999999942e-04 -1.748999999999999904e-03 -7.169999999999999724e-04 4.449999999999999746e-04 1.528000000000000061e-03 8.869999999999999846e-04 -1.569999999999999944e-04 1.320999999999999909e-03 7.069999999999999462e-04 1.330000000000000073e-04 4.159999999999999744e-04 6.279999999999999775e-04 -4.409999999999999858e-04 -1.727000000000000019e-03 -1.781000000000000031e-03 -5.090000000000000123e-04 -1.099999999999999971e-05 1.410999999999999928e-03 6.899999999999999667e-05 -1.374000000000000004e-03 -1.322000000000000041e-03 -3.130000000000000187e-04 2.197000000000000168e-03 7.410000000000000137e-04 5.509999999999999490e-04 1.407999999999999963e-03 9.499999999999999981e-04 -9.399999999999999448e-05 2.460000000000000164e-04 6.629999999999999609e-04 -1.569999999999999944e-04 -1.724999999999999971e-03 -1.394999999999999973e-03 2.469999999999999865e-04 -7.899999999999999579e-05 1.329000000000000103e-03 -5.839999999999999922e-04 -1.253999999999999906e-03 -1.492000000000000054e-03 -8.379999999999999862e-04 1.631999999999999987e-03 7.479999999999999670e-04 -1.051999999999999984e-03 1.386000000000000079e-03 9.940000000000000918e-04 -2.719999999999999979e-04 5.199999999999999544e-04 7.349999999999999763e-04 1.359999999999999989e-04 -1.982999999999999954e-03 -1.760999999999999979e-03 -9.100000000000000287e-05 1.356999999999999916e-03 -3.170000000000000075e-04 -2.970000000000000092e-04 -5.190000000000000386e-04 -9.929999999999999591e-04 -9.979999999999999722e-04 2.122000000000000188e-03 1.840000000000000001e-04 -2.239999999999999966e-04 2.825999999999999953e-03 1.949999999999999965e-04 4.009999999999999893e-04 -5.379999999999999583e-04 -2.480000000000000108e-04 6.499999999999999431e-05 -3.220000000000000206e-04 -1.543000000000000101e-03 -2.099999999999999884e-05 1.056999999999999997e-03 -1.589999999999999888e-04 3.959999999999999762e-04 -5.429999999999999714e-04 -1.338999999999999913e-03 -2.680000000000000090e-04 1.843999999999999936e-03 -1.079999999999999960e-04 1.026999999999999918e-03 2.746000000000000177e-03 5.540000000000000219e-04 -1.129999999999999955e-04 -5.450000000000000200e-04 -1.450000000000000009e-04 -1.769999999999999926e-04 -2.889999999999999774e-04 -2.053000000000000137e-03 -1.620000000000000075e-04 1.064000000000000059e-03 -6.899999999999999667e-05 -6.310000000000000504e-04 -6.700000000000000226e-04 -1.319999999999999993e-03 4.989999999999999861e-04 1.966999999999999998e-03 1.979999999999999881e-04 -1.358000000000000049e-03 2.814000000000000095e-03 4.159999999999999744e-04 -5.850000000000000165e-04 -5.029999999999999749e-04 -1.450000000000000009e-04 -4.589999999999999896e-04 -1.190000000000000058e-04 -1.600000000000000077e-03 -1.689999999999999879e-04 7.290000000000000473e-04 9.950000000000000077e-04 -2.579999999999999828e-04 -3.060000000000000111e-04 -1.366999999999999943e-03 -1.361000000000000014e-03 1.600999999999999993e-03 6.499999999999999702e-04 -2.509999999999999753e-04 2.478999999999999867e-03 -4.500000000000000283e-05 -1.559999999999999972e-04 3.930000000000000117e-04 1.051999999999999984e-03 -6.340000000000000149e-04 -7.709999999999999840e-04 -1.456000000000000046e-03 -1.700000000000000122e-04 9.629999999999999888e-04 1.034999999999999896e-03 -3.699999999999999947e-04 -1.259999999999999998e-04 -1.144999999999999967e-03 3.300000000000000253e-05 1.659000000000000101e-03 5.500000000000000331e-04 -6.160000000000000111e-04 1.833999999999999910e-03 -1.699999999999999987e-05 -5.700000000000000314e-05 6.589999999999999721e-04 9.049999999999999885e-04 3.300000000000000253e-05 -1.139999999999999954e-03 -9.629999999999999888e-04 1.250000000000000026e-04 9.380000000000000317e-04 1.082000000000000062e-03 9.000000000000000567e-05 -3.009999999999999980e-04 -9.650000000000000374e-04 7.540000000000000044e-04 1.804999999999999964e-03 7.789999999999999616e-04 2.669999999999999847e-04 1.812999999999999941e-03 3.800000000000000209e-05 -3.800000000000000209e-05 3.370000000000000057e-04 1.021999999999999905e-03 1.259999999999999998e-04 -7.609999999999999577e-04 -1.448999999999999984e-03 -1.299999999999999920e-05 -2.400000000000000061e-05 1.717999999999999909e-03 -7.899999999999999579e-05 -1.899000000000000080e-03 2.400000000000000061e-04 4.409999999999999858e-04 8.120000000000000048e-04 2.491999999999999858e-03 -2.130000000000000003e-04 1.165000000000000020e-03 1.541999999999999968e-03 1.100000000000000039e-04 -1.191000000000000001e-03 1.660000000000000017e-03 -5.410000000000000312e-04 -6.080000000000000335e-04 -1.283999999999999985e-03 -6.199999999999999999e-04 8.100000000000000375e-05 1.892000000000000019e-03 -4.899999999999999842e-05 -1.500000000000000031e-03 -5.280000000000000405e-04 -4.840000000000000010e-04 1.324000000000000090e-03 2.187999999999999841e-03 4.240000000000000062e-04 1.306000000000000086e-03 1.655000000000000004e-03 -1.540000000000000028e-04 -1.327000000000000055e-03 1.523000000000000048e-03 -2.410000000000000033e-04 -4.139999999999999800e-04 -8.800000000000000313e-04 3.110000000000000243e-04 -5.099999999999999960e-05 1.922000000000000097e-03 -4.360000000000000269e-04 -1.636000000000000084e-03 -4.910000000000000085e-04 -6.189999999999999756e-04 7.259999999999999743e-04 2.236999999999999839e-03 -9.470000000000000336e-04 1.106999999999999911e-03 1.647000000000000026e-03 -1.620000000000000075e-04 -1.131000000000000061e-03 1.701999999999999954e-03 2.660000000000000146e-04 -5.559999999999999621e-04 -1.219000000000000031e-03 -3.999999999999999819e-06 -3.809999999999999910e-04 1.464999999999999939e-03 -2.010000000000000068e-04 -1.987000000000000051e-03 -1.990000000000000124e-04 -8.140000000000000534e-04 2.013000000000000032e-03 1.399999999999999979e-05 -3.199999999999999855e-05 1.069000000000000072e-03 1.340999999999999961e-03 3.759999999999999779e-04 1.420000000000000092e-04 7.309999999999999875e-04 2.599999999999999840e-05 -2.191999999999999938e-03 -3.519999999999999908e-04 -2.300000000000000002e-05 -7.780000000000000457e-04 1.549999999999999946e-03 1.190000000000000058e-04 -2.407999999999999984e-03 -9.269999999999999811e-04 -1.589999999999999888e-04 1.946999999999999946e-03 -1.749999999999999982e-04 9.250000000000000409e-04 1.025000000000000086e-03 1.531999999999999942e-03 -2.300000000000000002e-05 1.000000000000000048e-04 4.499999999999999877e-04 -2.939999999999999905e-04 -2.187999999999999841e-03 -9.309999999999999699e-04 -2.460000000000000164e-04 -6.120000000000000223e-04 1.477000000000000014e-03 -4.490000000000000176e-04 -2.044999999999999943e-03 -8.890000000000000333e-04 2.709999999999999735e-04 2.024999999999999890e-03 3.699999999999999811e-05 -1.495000000000000018e-03 1.304000000000000038e-03 1.402999999999999950e-03 -6.449999999999999570e-04 2.590000000000000071e-04 8.310000000000000329e-04 -1.420000000000000092e-04 -2.076000000000000154e-03 -2.239999999999999966e-04