9.257197169974839320e-04 -1.628169475419080081e-01 3.752346084936578757e-03 -4.111064199189226631e-04 -5.409627733327104521e-04 2.602990931480482061e-03 -5.317646668745737914e-04 4.685919758603730376e-03 -5.689088095203916062e-03 -3.611168338527267086e-03 4.883062770625653214e-03 4.227783723057265686e-03 2.620827377465587919e-03 3.216058926140723077e-03 4.301061129665263889e-03 9.858619815423857666e-04 3.450473757240638049e-04 3.396035256273888768e-03 -3.566137196615635704e-03 3.052051393339120459e-03 3.427811515724152845e-03 -5.003805623458437712e-03 -3.103064602859408223e-03 -4.833159769046199185e-03 8.570196472353202102e-03 1.300925236174044599e-03 -4.799669463114128974e-03 1.408753174223432883e-04 1.100433303514456650e-04 3.064004179237736578e-03 -1.111250551497772052e-04 5.004364109488855614e-05 3.071994768241626331e-03 -4.012953070810502710e-05 -2.049549258036184498e-04 3.177001274654131947e-03 1.787671449515171635e-05 -2.995709790434199706e-05 3.027001155494329736e-03 -3.412473035540100201e-05 -2.109566034808433861e-04 3.059001604155512071e-03 7.876207931100648844e-06 1.550431367516952536e-04 3.042998125384703805e-03 3.876464696708841123e-06 -3.695700187491795098e-05 3.033000684641181093e-03 1.368713862849621585e-04 8.204469455460788104e-05 3.160004413242467700e-03 -1.441287497488192215e-04 6.404495711172838567e-05 3.162993225880257435e-03 -3.613117665873321162e-05 3.304570904119513469e-05 3.221998063187999327e-03 5.786710042586559445e-05 -3.495378326397845242e-05 3.263002854997806585e-03 -3.313371391545922977e-05 -3.495342845542099929e-05 3.282999149381763022e-03 7.687008554362228976e-05 -7.095484729413308771e-05 3.189004139162252959e-03 -5.013117353780897873e-05 -1.495429416981509858e-05 3.220998173629659785e-03 -3.913007489280687421e-05 -6.795469975569997886e-05 3.192999373006514749e-03 8.713707013095000703e-07 1.004478687154814326e-05 3.158999896006614832e-03 1.386832923964619183e-05 1.820458825432968617e-04 3.236997986729854646e-03 -1.713052751675340701e-05 -2.195454685270837339e-05 3.204999616676964310e-03 -1.118627645076061952e-04 -2.000477481658237454e-04 -3.374001722046166517e-03 -1.298867598376219766e-04 2.019607300314127060e-04 -2.777008155037370609e-03 2.511310033856154421e-04 -9.804583484542982088e-05 -3.218988386653172905e-03 -2.389316257524596955e-05 3.396283043124242535e-05 -2.623001456906047957e-03 -2.078736609831943868e-04 1.849562258567197021e-04 -3.099011089942448494e-03 2.411242430008567455e-04 4.956554843769178650e-06 -3.050990254327493479e-03 1.141296277848605049e-04 2.769548536768491457e-04 -3.177999282109189236e-03 3.912537083972141417e-05 4.095633020488865893e-05 -3.077998990313804677e-03 -1.458719039197967061e-04 -1.190445173703680851e-04 -3.148004255164034686e-03 -2.880787453822100230e-03 -2.051072305007125597e-03 -5.259088233290437620e-03 4.456431268663132821e-03 -2.653154368861673426e-03 -1.064178092438815976e-02 -1.570475695289817036e-03 -3.505182272765080837e-03 -1.294301426736435903e-02 -9.780855060280923240e-04 4.634031800497130649e-03 2.188894473216810178e-03 5.390876322837081895e-04 1.456969464180838097e-03 -2.123998706488152907e-03 4.460854161810364469e-04 -2.280301509191540155e-04 -2.101978604016315703e-03 9.491091618483275556e-04 5.069613879941214235e-04 -2.670968541555410886e-03 3.842626738631764422e-05 5.094852945994594699e-03 -1.037007067867258894e-02 -9.798333214121027115e-04 6.849429218620950314e-04 -4.080049614409307808e-03 2.612310458778574550e-05 5.895713433856441350e-05 -3.021999774936669127e-03 -8.877868006885918046e-06 1.295748783736055636e-05 -2.999000548010719632e-03 -1.287830888064705867e-05 2.195764692418687158e-05 -2.988000838504221122e-03 4.512007239912129992e-05 -1.704184555163935804e-05 -2.948997923798334780e-03 -2.587671216277737275e-05 -1.904291000454435981e-05 -3.028000786549799126e-03 -4.877806916452843518e-06 3.895747052495946930e-05 -3.000000753748235764e-03 -2.887997920539061295e-05 2.095824074183606791e-05 -2.947001475898188786e-03 5.119702835424565622e-06 3.095832754132155697e-05 -2.939000233174322504e-03 3.211933240760322852e-05 2.595843400108767334e-05 -2.929999062830891069e-03 -2.400221771121870381e-05 -2.399921560472316706e-05 5.399936291569809946e-05 -4.598574529214183185e-05 5.499508796169677561e-05 -3.490026526117122330e-04 5.098932015257011342e-05 3.800368882354573723e-05 2.630015377639108331e-04 1.310156891183926443e-04 -8.900558937032976748e-05 -3.869934033878005115e-04 4.599348781170235984e-05 1.080022607741380151e-04 1.620003418101019857e-04 -1.470007242338900312e-04 1.100037029964253347e-05 1.799385806275494555e-05 -9.400892246245848196e-05 4.600319271198124001e-05 2.199955198583639136e-04 3.599676186729654421e-05 -2.699890813930600839e-05 7.900184867681553488e-05 7.499999680350104682e-05 -4.000058724308448553e-06 3.110774887615761557e-09 -1.353914379957557070e-03 3.719972264699393689e-03 -2.031107875424495359e-03 1.430675772059799514e-03 1.076549246662169201e-03 1.798850431624451351e-01 -7.571373154474109613e-05 2.629690756091971823e-02 -6.524375921365881820e-03 6.358901597756443438e-03 1.354403297352024284e-02 2.677066917775315896e-03 -2.298985815369052575e-03 -2.999003955774421498e-03 -4.060510977466620479e-04 -4.063046751629600419e-03 1.215102277380161397e-02 1.381662275893318255e-03 2.323015239711693092e-03 2.249993488022838765e-03 -3.309373051229602160e-04 -4.209152405771446359e-04 4.399709390272366419e-04 -2.073023379767188409e-03 -1.907962039501642434e-03 1.723988747944835056e-03 -8.991021370124389770e-04 1.170016662731440785e-04 -1.080007012448632120e-04 -4.299370442199216565e-05 -3.298322771296735074e-05 -5.800582958476479970e-05 -4.130005210938815963e-04 -9.499790513617621397e-05 2.299935131475262665e-05 -5.100419452200630590e-05 6.004121419173107824e-06 1.099856334358245261e-05 -1.009999115364020099e-04 8.700538759091816651e-05 -3.600195376381966139e-05 -1.329959467628314459e-04 -1.079993859885119799e-04 -4.800014227630202166e-05 -1.600371730440059562e-05 4.000145691388364476e-06 8.199996850415810991e-05 -2.000999691340646822e-06 -8.800017294686553952e-05 9.100015396126005785e-05 5.995126383048631641e-06 7.901838381410489622e-05 -2.800647021737777344e-05 -4.519963856552062023e-04 -1.284519399095583603e-02 1.789643065347574710e-02 2.966522322855578292e-02 -1.371799395654867658e-02 7.958010811227985565e-03 4.328564718062154078e-06 2.655568220159559498e-02 2.537209676647544584e-02 8.292721656999334570e-03 3.689209762609375540e-04 4.086703836980251636e-02 2.726435620799432837e-03 1.359179450054709502e-03 8.012848444657725720e-04 2.016604400522269830e-02 -1.728794188563365086e-03 6.092780326324764633e-04 1.951492098197020811e-02 -6.078183324088491310e-04 1.914285916639761002e-03 2.013294812748849319e-02 9.760108891506482113e-04 -1.411300840461319692e-02 -5.387601651724440799e-04 -3.528924881136776188e-04 4.145312144161388511e-03 2.199692687898245971e-02 3.213653424945078898e-05 2.333006709994963148e-04 2.120899802065334683e-02 2.761356614959509497e-04 -1.526993215235174011e-04 2.122301342914470132e-02 -2.888569150889535469e-04 -1.377014594909576001e-04 2.104099020936655781e-02 1.961153951211530968e-04 -1.366921983433470346e-04 2.172100994416945735e-02 -1.568633584940380362e-04 -1.496993227535730448e-04 2.119899575450518922e-02 -1.386348310090142815e-05 -1.006993780157816604e-04 2.120300088287277104e-02 4.812850667073977816e-05 7.030340898029055951e-05 2.140300098298206569e-02 -6.863294165571568420e-06 3.483006731691623494e-04 2.120699480209921328e-02 -4.488448946867754313e-05 6.230800451646040759e-05 2.172199730906848245e-02 1.313576201148955966e-05 -2.469911560843227676e-05 2.122300090480713428e-02 1.320540751102644527e-07 -2.769781524980176148e-05 2.131400041788476807e-02 -2.386512752273367463e-05 3.530123944567015290e-05 2.124599854744845667e-02 -8.386378050099271408e-05 1.433008469028956183e-04 2.121499457302775116e-02 9.413736653709314079e-05 4.830028220529605960e-05 2.118500316825466800e-02 -2.860947447915304500e-06 -8.670026565346326396e-05 2.114100113237107892e-02 1.341417698396528023e-04 5.529871968284491248e-05 2.107700469794476436e-02 -1.058609559318328158e-04 6.299843341356067882e-06 2.114299561958955104e-02 -5.286544148681753197e-05 1.023013897459625765e-04 2.125499641662525335e-02 -3.714849170905328647e-05 -1.098296739747998008e-03 -2.093198596074970219e-02 -3.681822313725734912e-04 -2.442845004252814484e-04 -2.008701154794693272e-02 3.708257940877373801e-04 7.271221294968768670e-05 -2.027798594941142285e-02 -1.153111745881878246e-03 1.676916858437557884e-04 -2.181004935345190812e-02 1.254889681293175439e-03 2.246893183382237045e-04 -2.184395210574333057e-02 -8.815145504423340370e-05 2.127046894765876955e-04 -2.083400662465211342e-02 5.038459370636298685e-04 8.347053033926063242e-04 -2.075799133654777917e-02 -2.691426664696628160e-04 -2.642983587569777346e-04 -2.105900723212383516e-02 -2.101466019610359528e-04 5.337031828788821319e-04 -2.094701614355298086e-02 3.758883925350530223e-04 -8.493098373441348081e-04 -2.183297267246372617e-02 1.130818173734038454e-03 -4.012858584320314905e-04 -2.009994828147015911e-02 -1.510364966941919263e-03 -1.625557251896049202e-02 -4.046483107276552943e-02 -6.231006578315552002e-04 -1.687313095718173369e-03 -2.211800147136326958e-02 1.054924932170077075e-03 -1.871323369933843581e-03 -2.274993053247911096e-02 -4.381331632701960296e-04 1.833699037043364953e-03 -2.125204385871601320e-02 5.059041549671204618e-04 1.701685268514362094e-03 -2.217100354591347924e-02 1.352272766720660248e-02 9.113390371980494009e-03 -4.225157859023089685e-02 -1.402723634800664108e-02 9.016399396185472911e-03 -4.313769907361341555e-02 1.986377360183820066e-05 5.569925989997832557e-05 -2.121100000054087359e-02 -2.313694136539023438e-05 -2.530047957829542274e-05 -2.119500060315350140e-02 6.859228450083597050e-06 -1.322991987002198808e-04 -2.110299786459280194e-02 1.486214318025645184e-05 1.699816754422096437e-06 -2.117199943858215361e-02 -8.213658579892432992e-05 -3.930056098026912754e-05 -2.120400280718666430e-02 2.986303116557951503e-05 -6.030052107356328735e-05 -2.119499794872667028e-02 7.586349235243520454e-05 -9.530072722140241269e-05 -2.120699557933464208e-02 9.885901223240292624e-05 -1.482991998452764062e-04 -2.109799389143492826e-02 -1.841379678471841131e-04 1.570001510263185478e-05 -2.116900774052300413e-02
9.287206489228377318e-04 -1.627189478420005830e-01 3.731344817697834510e-03 -4.361067503663487699e-04 -5.469626403348387678e-04 2.610989998518348492e-03 -5.207645016496166524e-04 4.688919693279289605e-03 -5.693087689804125599e-03 -3.605168542136443551e-03 4.883062836816652076e-03 4.232783967377724312e-03 2.613828072859967957e-03 3.220058690598771346e-03 4.284060787924054252e-03 9.848614999452966028e-04 3.540475466396970157e-04 3.408035087942011109e-03 -3.578137389239853788e-03 3.066051473622639998e-03 3.432810828580602682e-03 -5.004805312578784228e-03 -3.122064715496859592e-03 -4.841159540382108245e-03 8.576197490369226809e-03 1.300924877031183532e-03 -4.824669218765782579e-03 1.498748326826659645e-04 1.150434934375205691e-04 3.076004474825424443e-03 -1.361260214591736620e-04 6.404400093546979930e-05 3.095993551709349222e-03 -2.413074686156136314e-05 -1.979545129984017291e-04 3.207001826915517953e-03 3.487625949965040173e-05 -3.895695525862034490e-05 3.038001975338444367e-03 -3.312517906904402227e-05 -2.119564483079897316e-04 3.070001659043900769e-03 -8.123941618239714809e-06 1.720432059891014061e-04 3.046997232825388383e-03 -2.512381797439817250e-05 -3.395687992376432294e-05 3.039999461196700881e-03 1.518701528937185135e-04 6.704510814503859817e-05 3.190005236693798773e-03 -1.341295352066757473e-04 4.904521866139089633e-05 3.181993845737558259e-03 -2.313078826687898991e-05 9.045557086710946754e-06 3.211998932834682959e-03 4.286779034186632178e-05 -3.795401254125486203e-05 3.246002286734133400e-03 -2.713289872006191249e-05 -3.395371670940601445e-05 3.262999379547697892e-03 6.987001507777688394e-05 -5.695481345898062621e-05 3.191003655625747251e-03 -3.313112656248087150e-05 -6.954321659351604608e-06 3.219998752462950847e-03 -4.512956037982526698e-05 -3.495486519459417525e-05 3.180998660826368438e-03 -2.712761047089352507e-05 1.104445435045561615e-05 3.133998741668260479e-03 3.868727837031948372e-06 1.710457485964137392e-04 3.226997735486037203e-03 1.187047872659196614e-05 -3.695492400296880966e-05 3.180001010271338909e-03 -1.358622719197530120e-04 -1.950478995079644290e-04 -3.386002770224255838e-03 -1.558855060893255874e-04 1.909603108787654129e-04 -2.808009057795284383e-03 2.961319289575838586e-04 -1.120461961681388390e-04 -3.241986355704803372e-03 1.210687654858866431e-05 3.196278806578706916e-05 -2.623999962598951192e-03 -2.348733187390372246e-04 2.059561335731359551e-04 -3.107012487131024462e-03 2.361256901744617778e-04 3.295606253308952695e-05 -3.085990854876590351e-03 1.001306857547389149e-04 2.759544960162166739e-04 -3.203999837999171700e-03 5.712554778749370278e-05 6.956245225408623556e-06 -3.082997775289878385e-03 -1.508712093106490397e-04 -1.160447544782109206e-04 -3.165004501285777119e-03 -2.896787799164887538e-03 -2.076072179054303923e-03 -5.251088530387405112e-03 4.452432076031089501e-03 -2.662154649284688424e-03 -1.066178095965310095e-02 -1.549475082927487604e-03 -3.503182501875132249e-03 -1.295801344056807074e-02 -9.820857166811362577e-04 4.625031874518998817e-03 2.193894437928629176e-03 5.550875633659336627e-04 1.472969480006877316e-03 -2.121998281800609697e-03 4.340851914552863191e-04 -2.030300564589482607e-04 -2.095979447116193446e-03 9.201084359494215211e-04 5.159616659004191176e-04 -2.652969850076697216e-03 3.842683982879826875e-05 5.097852747505157538e-03 -1.038407072119286283e-02 -9.488341350710407943e-04 6.859431811450206976e-04 -4.060048366259279111e-03 9.123430368605638525e-06 5.895703422713615842e-05 -3.030000467183701588e-03 -1.087770042042615105e-05 1.895743269156654822e-05 -3.003000714515284206e-03 1.012144285736923534e-05 1.695771398255152134e-05 -2.981999831041405331e-03 4.312058531665701361e-05 -3.804202829486972887e-05 -2.961997707494919488e-03 -2.287674191607676392e-05 -5.042898177148823778e-06 -3.027000862876864321e-03 -1.387796352376039066e-05 4.695753428229983042e-05 -2.996001233661721788e-03 -3.787961271036591779e-05 2.095812018864320558e-05 -2.956001842377482206e-03 1.811977486344053899e-05 1.895828900799054729e-05 -2.940999533668236902e-03 2.611941228711267524e-05 2.395841034367550873e-05 -2.931999278798611604e-03 -8.599909312514384145e-05 -3.800025874779310465e-05 -2.300296321680351261e-05 1.101564619632281729e-05 1.199454711241307161e-05 -3.839997218468335486e-04 6.899081897298646134e-05 2.800315015219460862e-05 2.260024125512607269e-04 9.101805801245070702e-05 -8.000638036352192165e-05 -4.449951597677996888e-04 1.099759440196593083e-05 1.520008703950314754e-04 6.199829285168017364e-05 -9.299852535331702144e-05 1.099956241690049908e-05 -3.600394296108644609e-05 -7.800838451048169831e-05 5.002981699040928631e-06 2.059967526932982983e-04 5.299828184502644661e-05 -9.999446030382895984e-06 4.200229994370071782e-05 3.200258811001103798e-05 2.899908174009159151e-05 -6.299910802934012338e-05 -1.406914577274192201e-03 3.675972362913807519e-03 -2.027109409811730587e-03 1.449711765323762275e-03 1.019536684442091902e-03 1.790000447450965093e-01 -2.971425632731667250e-05 2.614690766669497055e-02 -6.514371921551505816e-03 6.283904629916609204e-03 1.346403195474056916e-02 2.601064998003208874e-03 -2.301987350979900655e-03 -2.932003400498168350e-03 -3.670521698556220079e-04 -3.983045203545441081e-03 1.210002215823304146e-02 1.342666256663598750e-03 2.324016274161926163e-03 2.218993118620288339e-03 -3.569368248672720608e-04 -4.129160119290196094e-04 4.429712021410768378e-04 -2.054023096551331907e-03 -1.910965563406471579e-03 1.747989983759600614e-03 -8.121025995221906654e-04 6.600125753989639855e-05 -1.100005195339040200e-04 -3.299575283916816718e-05 1.101574325950994576e-05 -7.200550959030021364e-05 -3.879985309109839253e-04 -7.899817533241174799e-05 -1.000057614308691233e-05 -4.500307512777161438e-05 8.006360280141445215e-06 9.997781998945976073e-06 -1.559998158658083790e-04 7.200424587767318568e-05 1.399846913214763799e-05 -1.039972664907299016e-04 -8.499815654665297533e-05 -3.800058562008262124e-05 -4.600292247457163505e-05 7.002980476231218420e-06 6.199897371151045394e-05 -7.200059390844606544e-05 -4.899895213758528108e-05 8.999969809064989237e-05 -2.400327129810640012e-05 4.301811682027342591e-05 -5.006342787267280531e-06 -4.449981777009133347e-04 -1.283918509271116982e-02 1.781942752967055621e-02 2.944522456477318903e-02 -1.364299263948964315e-02 7.872010270466902812e-03 -2.966716189883957563e-05 2.649868639816516450e-02 2.521909530827533968e-02 8.186721505207168736e-03 4.099232157482261677e-04 4.060703748705815630e-02 2.666440976628606501e-03 1.259185590390164179e-03 8.422827960919504692e-04 2.001603935198872572e-02 -1.675788550325638246e-03 6.332760345955006174e-04 1.937692280003727383e-02 -6.008126001790951637e-04 1.902283912090851686e-03 1.999194858279868328e-02 9.940129541699388709e-04 -1.407600912760062495e-02 -5.887599567278923359e-04 -3.878854598093885121e-04 4.176309732982325454e-03 2.182492501440189483e-02 7.143544498274329129e-06 1.892982378202381010e-04 2.103599762661447978e-02 2.451445331797704450e-04 -1.597023880093201048e-04 2.100501226624531398e-02 -2.428500419244524291e-04 -1.487038915550882221e-04 2.087199223863820882e-02 1.781231156656225354e-04 -1.056948638558650501e-04 2.153200877185916517e-02 -1.568561062416672688e-04 -9.270183222909858848e-05 2.102199494653720843e-02 -9.854828321097656757e-06 -2.070237267065283746e-05 2.099199991173124336e-02 1.373532943074719608e-07 3.130035580864851043e-05 2.118499958151663989e-02 1.814346388100703097e-05 2.942982859078766586e-04 2.103999658587496144e-02 -1.987734064376074018e-05 3.930548965189126231e-05 2.154599865334192593e-02 -3.385309846155572450e-05 -4.770296352122380367e-05 2.094899931727040032e-02 -4.785821357933449046e-05 2.429884801347508445e-05 2.107599772626145979e-02 7.614626247592719537e-05 2.029719136486504070e-05 2.096600283246030649e-02 -4.185450012715366259e-05 8.629756730766514991e-05 2.098599709164889610e-02 8.614739013895903526e-05 5.629680073079945359e-05 2.093900272929443210e-02 -4.085117203909358887e-05 -3.170362439824577232e-05 2.090199880542392002e-02 3.914966976140800355e-05 5.529604357517925911e-05 2.088300082964424792e-02 -6.852193222587425387e-06 -3.570329657482774566e-05 2.092700024662067296e-02 -4.485398326593979161e-05 1.222973995194800241e-04 2.097399645909801130e-02 1.840068053277374931e-06 -1.095292786324653491e-03 -2.065098441543101668e-02 -4.661913057700269427e-04 -2.362812620440986561e-04 -1.986401565221974919e-02 4.348126247482888792e-04 5.171674226795306621e-05 -1.995498304584418167e-02 -1.068121479800286742e-03 1.656950077823759451e-04 -2.157104586404621355e-02 1.220878490926106952e-03 2.346932438528097819e-04 -2.156895363228554519e-02 -1.501592005217584826e-04 3.057074601496836616e-04 -2.064201046805537107e-02 4.418354021710920159e-04 8.497090239858547849e-04 -2.049899407414776734e-02 -2.511528897911366421e-04 -3.192948283965231135e-04 -2.080900571960392353e-02 -1.801579364837638979e-04 5.157071008179231432e-04 -2.066901466698613243e-02 3.878825028911948164e-04 -8.303077909616763275e-04 -2.168797245332580725e-02 1.097811543316648368e-03 -3.922835216134214534e-04 -1.993694975300964317e-02 -1.486374803332954570e-03 -1.612856907838313564e-02 -4.022083189626788485e-02 -6.401084448757981106e-04 -1.647310360274561623e-03 -2.192600273090676219e-02 1.048917489664213162e-03 -1.859320770700524693e-03 -2.256693094710749900e-02 -4.101405423597883466e-04 1.874701595474095482e-03 -2.107004329998966863e-02 4.868963663074267825e-04 1.635687977179061661e-03 -2.198100338405388834e-02 1.341571660371407987e-02 9.025394283774700738e-03 -4.198158169996977357e-02 -1.390624700839773568e-02 8.923402987679105586e-03 -4.287769282810011823e-02 3.585469046554347707e-05 7.023948481551029445e-07 -2.098899856943663503e-02 -5.114719045667411008e-05 -9.296884851584507877e-06 -2.094300197041580602e-02 1.184898481644393034e-05 -1.092956298130877668e-04 -2.085099798731136420e-02 -3.614503069744752077e-05 -7.297648019882720176e-06 -2.099600138790929868e-02 -7.143774669028994381e-06 -6.729812441017417085e-05 -2.102799935630906419e-02 2.985365912877031898e-05 -1.629724600727008676e-05 -2.096399857276300127e-02 1.785206159809950643e-05 -8.029669784864049207e-05 -2.092599815407167677e-02 7.685076237517066773e-05 -1.272963045290192931e-04 -2.089499508521539678e-02 -9.914856630611492382e-05 1.703634776164400019e-06 -2.090900408100366745e-02