-1.412880807340000047e+03
-1.412880809009999894e+03
-1.412880811920000042e+03
-1.412880816319999894e+03
-1.412880822359999911e+03
