5.701300488248248438e-05 -1.719799999960521797e-01 -3.639998285278553142e-04 -5.701300495259289220e-05 1.719809999960531799e-01 3.649998285268564089e-04 -1.900000755602290978e-05 5.399999793473138078e-05 -6.289999999490621238e-04 2.000000748591250594e-05 -5.299999785810225085e-05 6.299999999425433825e-04 -1.614000214349327333e-03 2.825999877820882002e-03 -1.119999939137781805e-04 3.028999991269392192e-03 1.150002290780567931e-04 -6.000016834513047028e-06 -1.523999795514068521e-03 -2.695000115140639557e-03 1.200000111042318627e-04 1.090000006492006029e-04 -7.999991748310877806e-06 7.999999406326763524e-06 8.599998924229589536e-05 1.410000064872208474e-04 -1.700000061554915611e-05 -8.199998923677604356e-05 -1.410000061837009429e-04 1.800000059346973182e-05 -8.100001134231400040e-05 1.479999938469790286e-04 -2.699999970072542360e-05 7.800001125564402554e-05 -1.469999940758675541e-04 2.499999971628611562e-05 -3.028999991285951862e-03 -1.150002290810534330e-04 3.000016834513046952e-06 1.612000214360367065e-03 -2.825999877970144548e-03 1.139999939248178873e-04 -1.080000004924202146e-04 5.999991824940019517e-06 -6.999999409848866536e-06 1.524999795573139458e-03 2.694000115213273597e-03 -1.230000111087528418e-04 2.126996933059663742e-03 4.032500015776192825e-02 -3.107000052020426548e-03 2.139003170316505689e-03 -3.882399979587338595e-02 4.240100002697341081e-02 -2.124999799642589803e-03 -1.127000139881717718e-03 2.085600001285542460e-02 -2.137999977196235191e-03 1.122999857798585160e-03 1.951800001067971468e-02 -7.000000834374731778e-04 2.599999967543779444e-03 2.050800000126681844e-02 8.560001090958202583e-04 3.100008490582606429e-05 2.018899999524403563e-02 -6.889996947594088927e-04 -2.584000032237583188e-03 1.989400000638427701e-02 5.320001117279684862e-04 -2.999939587389667335e-06 2.019999999706643262e-02 -1.346999568113657229e-03 -4.240000081748573034e-03 2.014800001167047980e-02 1.368000123296759163e-03 -1.709998765662624402e-04 1.999399999261964808e-02 1.346000102177462862e-03 1.370001221634285120e-04 2.038799999243342750e-02 -1.367000205421167649e-03 4.190999916798729755e-03 2.020800000335935126e-02 -3.214599987715355267e-02 -1.730024113475945853e-04 1.988500017761407959e-02 1.546000104120385382e-02 -1.315599882239358066e-02 8.371999927804251590e-03 1.721000111857146249e-03 -4.999849667008834379e-06 2.019599999050532280e-02 1.496499919870923970e-02 1.290700116345118789e-02 3.167999990450286185e-02 3.214599987730481362e-02 1.710024113475945909e-04 -1.988500017761208119e-02 -1.496799919863913038e-02 -1.290800116367907778e-02 -3.168099990448530745e-02 -1.723000111879225424e-03 4.999849511752812073e-06 -2.019999999049428355e-02 -1.545900104103051578e-02 1.315399882247320767e-02 -8.367999927807776017e-03 1.345999568194807244e-03 4.239000081673941628e-03 -2.014700001166396318e-02 1.367000205415647759e-03 -4.190999916799728955e-03 -2.020900000335935226e-02 -1.349000102415393379e-03 -1.340001223923170432e-04 -2.038999999241986397e-02 -1.366000122977678415e-03 1.669998767205195652e-04 -1.999099999262668806e-02 6.990000831940228199e-04 -2.596999967622406688e-03 -2.051100000126429915e-02 -5.330001119013084770e-04 4.999939507763897122e-06 -2.020399999706291166e-02 6.849996946672189764e-04 2.585000031932065557e-03 -1.989700000636319965e-02 -8.560001091548909537e-04 -3.000008490282943732e-05 -2.018599999524503530e-02 -2.129996933205404331e-03 -4.032300015798782195e-02 3.108000052034988383e-03 2.135999977179675689e-03 -1.122999857952842193e-03 -1.952100001066867443e-02 2.127999800031780183e-03 1.122000140110606227e-03 -2.085400001286699320e-02 -2.141003170462246578e-03 3.882599979572312621e-02 -4.240000002696436843e-02
5.701299800012903936e-05 -1.718889999960521719e-01 -3.639998286187530897e-04 -5.701299798908932693e-05 1.718889999960541703e-01 3.659998286187530841e-04 -2.200000746935292829e-05 5.299999770983836270e-05 -6.269999999315036378e-04 2.100000748039264353e-05 -5.299999778347086905e-05 6.289999999370234681e-04 -1.610000213901065800e-03 2.819999878122403901e-03 -1.129999939298643362e-04 3.023999991263872939e-03 1.150002286989066313e-04 -7.000016806913769910e-06 -1.521999795729919681e-03 -2.692000114987381110e-03 1.220000110901955183e-04 1.070000004869003680e-04 -5.999991901569153938e-06 5.999999415368722166e-06 8.199998932344601326e-05 1.400000061856986695e-04 -1.600000059247085518e-05 -8.199998924229590655e-05 -1.410000061846998184e-04 1.700000059346973123e-05 -8.000001126116388294e-05 1.469999939236081641e-04 -2.599999970524640038e-05 8.000001127220359538e-05 -1.469999939216104132e-04 2.799999970524640156e-05 -3.023999991333983523e-03 -1.140002286979077722e-04 8.000016805914893345e-06 1.610000213906585690e-03 -2.819999878121405134e-03 1.139999939298643470e-04 -1.070000005570107622e-04 6.999991902568028295e-06 -4.999999416367599578e-06 1.520999795665329071e-03 2.693000114913749170e-03 -1.200000110856745363e-04 2.126996935832031581e-03 4.028900015777091975e-02 -3.098000051984467138e-03 2.135003167870962691e-03 -3.879399979620787309e-02 4.236900002696551704e-02 -2.124999800206768281e-03 -1.121000139901695298e-03 2.083600001284943368e-02 -2.135999977192363022e-03 1.121999857936860053e-03 1.950500001066967498e-02 -6.990000833745303385e-04 2.597999967603428079e-03 2.049200000126329829e-02 8.550001089429120574e-04 3.200008481621152744e-05 2.017499999524855966e-02 -6.859996951502475484e-04 -2.580000032026674110e-03 1.987800000636372189e-02 5.310001117263206914e-04 -3.999939677004198169e-06 2.018599999707295159e-02 -1.343999568644716402e-03 -4.234000081535666156e-03 2.013400001164792827e-02 1.366000123057180791e-03 -1.689998767335049678e-04 1.997799999262868734e-02 1.345000102240405653e-03 1.350001220718162259e-04 2.037199999244094714e-02 -1.365000205136854012e-03 4.185999916933009699e-03 2.019100000335330783e-02 -3.211499987737104905e-02 -1.710024090150431483e-04 1.987300017744096647e-02 1.544300104026317261e-02 -1.314399882368528887e-02 8.365999927886103721e-03 1.719000111774348282e-03 -4.999849833252503702e-06 2.018099999051636492e-02 1.495599919957651784e-02 1.289400116274953823e-02 3.165899990456552682e-02 3.211699987722530653e-02 1.730024091673025327e-04 -1.987200017745400366e-02 -1.495799919950088763e-02 -1.289500116290080017e-02 -3.165899990455348784e-02 -1.718000111768828260e-03 4.999849909881637275e-06 -2.017999999052188381e-02 -1.544200104031672426e-02 1.314499882376491541e-02 -8.361999927892622281e-03 1.344999568747946243e-03 4.233000081616290766e-03 -2.012900001165245090e-02 1.364000205136854096e-03 -4.185999917008639305e-03 -2.019100000334778794e-02 -1.345000102251445433e-03 -1.350001220738139768e-04 -2.037399999244094567e-02 -1.366000123029581558e-03 1.689998767384993451e-04 -1.997299999262868928e-02 6.990000834076494623e-04 -2.597999967597434609e-03 -2.048600000126329923e-02 -5.320001117042413722e-04 3.999939605369447832e-06 -2.018199999706743117e-02 6.869996950801372055e-04 2.581000032103303483e-03 -1.987700000637023998e-02 -8.540001090075027270e-04 -3.100008473858352205e-05 -2.017299999525507676e-02 -2.125996935896622142e-03 -4.028800015769329335e-02 3.100000051977948312e-03 2.135999977214442583e-03 -1.121999857932864551e-03 -1.950100001066967445e-02 2.123999800206768148e-03 1.121000139826065041e-03 -2.083600001284391379e-02 -2.136003168179003309e-03 3.879799979613123700e-02 -4.237000002696399842e-02
5.701298440876208197e-05 -1.717089999960481894e-01 -3.599998287985508466e-04 -5.601298445679306093e-05 1.717099999961288204e-01 3.649998287920320941e-04 -2.000000738820282718e-05 5.199999786209776227e-05 -6.259999999415445182e-04 2.000000748591250594e-05 -5.299999785810225085e-05 6.299999999425433825e-04 -1.608000213890025971e-03 2.819999878275662383e-03 -1.109999939409040542e-04 3.021999991274912020e-03 1.150002285496438677e-04 -5.000016795874058833e-06 -1.519999795875660474e-03 -2.690000114835121997e-03 1.230000110771580521e-04 1.070000005735703377e-04 -6.999991899571396828e-06 7.999999416367598807e-06 8.199998925333560544e-05 1.410000061866975693e-04 -1.500000059346973344e-05 -8.199998915010607385e-05 -1.420000061817031892e-04 2.000000059446861185e-05 -7.900001126116387219e-05 1.469999939992384214e-04 -2.599999971076625660e-05 7.900001128324329706e-05 -1.469999939952428925e-04 2.999999971076625896e-05 -3.021999991252832894e-03 -1.150002285456483658e-04 9.000016795874058652e-06 1.608000213912105531e-03 -2.819999878271666881e-03 1.149999939409040566e-04 -1.070000005459710498e-04 6.999991904565781759e-06 -2.999999416367598822e-06 1.519999795746479303e-03 2.692000114839117331e-03 -1.190000110791558142e-04 2.124996939886241842e-03 4.023700015764163779e-02 -3.076000051921485949e-03 2.135003164480865460e-03 -3.875099979623284480e-02 4.234400002692256804e-02 -2.122999800315516963e-03 -1.120000139756427903e-03 2.083000001283739563e-02 -2.134999977214442884e-03 1.121999858008494808e-03 1.950100001066415456e-02 -6.980000831752388845e-04 2.594999967674063452e-03 2.048700000126077447e-02 8.550001089909430810e-04 3.100008481121714615e-05 2.016999999524955733e-02 -6.859996953180676248e-04 -2.578000032029671013e-03 1.987500000636172395e-02 5.310001117042413479e-04 -3.999939680999705944e-06 2.018199999707295106e-02 -1.342999568904726599e-03 -4.231000081466030488e-03 2.012800001163941171e-02 1.364000123013022056e-03 -1.689998768927565131e-04 1.996999999263972952e-02 1.344000102148215810e-03 1.360001219931893394e-04 2.036899999244546830e-02 -1.363000205002153119e-03 4.183999917081273646e-03 2.018800000334426345e-02 -3.208099987723634500e-02 -1.730024064466109950e-04 1.987000017725528908e-02 1.542300103879472480e-02 -1.312399882518990382e-02 8.373999927976523774e-03 1.718000111757788479e-03 -4.999849911879391587e-06 2.017799999052188528e-02 1.493999920091413497e-02 1.287500116152147378e-02 3.164099990467282575e-02 3.208199987749083687e-02 1.700024065272356380e-04 -1.986500017725781331e-02 -1.493799920095664410e-02 -1.287400116136422357e-02 -3.163499990468486567e-02 -1.718000111649039098e-03 3.999849917872655624e-06 -2.017199999052088355e-02 -1.542200103885379633e-02 1.312499882526853116e-02 -8.370999927983043334e-03 1.342999568926805942e-03 4.231000081470025556e-03 -2.012400001163941118e-02 1.363000204954122095e-03 -4.182999917076279245e-03 -2.018300000334526112e-02 -1.344000102190726943e-03 -1.350001219871960624e-04 -2.036299999244646497e-02 -1.364000123007502166e-03 1.689998768937553885e-04 -1.996899999263972852e-02 6.980000832729485937e-04 -2.595999967670067649e-03 -2.048300000125977821e-02 -5.310001116876817860e-04 3.999939683996336564e-06 -2.017899999707295153e-02 6.859996953401470768e-04 2.578000032033666514e-03 -1.987100000636172342e-02 -8.550001089633437390e-04 -3.100008480622276207e-05 -2.016499999524955580e-02 -2.125996939864161980e-03 -4.023700015771327493e-02 3.080000051927005503e-03 2.134999977160891970e-03 -1.120999858004499391e-03 -1.949700001066514976e-02 2.122999800245406812e-03 1.121000139757427020e-03 -2.082900001283839383e-02 -2.134003164215335542e-03 3.874799979631546321e-02 -4.233700002692509373e-02
5.901296207575664984e-05 -1.714139999959009286e-01 -3.639998291042591478e-04 -5.701296239483725315e-05 1.714179999960491751e-01 3.609998290892239012e-04 -1.800000731809242834e-05 5.099999801235939736e-05 -6.269999999515852305e-04 2.100000731809241656e-05 -5.099999778546862556e-05 6.269999999350256686e-04 -1.606000213371653901e-03 2.812999878424924868e-03 -1.129999939449516193e-04 3.015999991258352855e-03 1.150002280928656977e-04 -8.000016762754925828e-06 -1.516999796259331469e-03 -2.685000114609229979e-03 1.220000110556041022e-04 1.040000004924202258e-04 -5.999992127461049425e-06 6.999999431928288872e-06 7.799998940459611761e-05 1.390000058841765187e-04 -1.500000056939255764e-05 -8.299998941011596661e-05 -1.390000062633266805e-04 1.400000059699183476e-05 -7.600001103427312234e-05 1.439999942261292287e-04 -2.599999972432919548e-05 8.300001103979295219e-05 -1.439999936957185524e-04 2.699999968569020593e-05 -3.011999991193762063e-03 -1.160002277923424167e-04 6.000016741674380315e-06 1.600000213296023715e-03 -2.811999878878706279e-03 1.129999939770718812e-04 -1.070000005514909128e-04 6.999991903566904604e-06 -3.999999416367598988e-06 1.516999796405072093e-03 2.683000114608231380e-03 -1.230000110536063620e-04 2.123996946400907252e-03 4.015400015760896280e-02 -3.033000051833059218e-03 2.131003158331663989e-03 -3.867399979659429804e-02 4.228500002686774034e-02 -2.119999800516456524e-03 -1.118000139538527287e-03 2.082100001281883550e-02 -2.131999977112860982e-03 1.119999858226395761e-03 1.949200001064958776e-02 -7.000000830957364478e-04 2.592999967509817399e-03 2.047400000127381006e-02 8.540001090759653237e-04 2.900008472360037201e-05 2.015799999525707403e-02 -6.819996956592276789e-04 -2.574000031734141689e-03 1.986800000633565100e-02 5.280001113630813404e-04 6.008511737121359937e-11 2.017499999708551386e-02 -1.343999569472777112e-03 -4.224000081548652703e-03 2.012100001163794061e-02 1.359000122963343249e-03 -1.689998772798976786e-04 1.996099999266732691e-02 1.346000102076457721e-03 1.360001221314644459e-04 2.035599999243442593e-02 -1.360000204371159633e-03 4.174999917299174537e-03 2.017900000333669452e-02 -3.201599987743176945e-02 -1.710024015386352549e-04 1.986200017689450370e-02 1.539000103730032640e-02 -1.310299882766872114e-02 8.390999928137701791e-03 1.714000111615920094e-03 -3.999850226386946771e-06 2.016599999054296405e-02 1.491299920239032469e-02 1.285300115944549779e-02 3.160699990484384242e-02 3.201599987759407018e-02 1.690024015406330115e-04 -1.986000017689250330e-02 -1.490799920253054606e-02 -1.285100115906534675e-02 -3.160499990487343480e-02 -1.715000111691550267e-03 4.999850150756686708e-06 -2.016599999053844336e-02 -1.539400103722469645e-02 1.310199882736619997e-02 -8.390999928114623030e-03 1.340999569494856708e-03 4.224000081325757217e-03 -2.011700001162138041e-02 1.364000204603570176e-03 -4.177999916995655573e-03 -2.017800000335577895e-02 -1.340000102163127829e-03 -1.350001216796806560e-04 -2.035799999246854647e-02 -1.365000123120123582e-03 1.709998768251172810e-04 -1.996199999263620697e-02 6.930000829444760884e-04 -2.590999968039229585e-03 -2.047400000123716923e-02 -5.290001117081134189e-04 4.999939845245618158e-06 -2.016899999708499092e-02 6.889996957514175598e-04 2.573000032266550743e-03 -1.986500000637329150e-02 -8.540001088010436368e-04 -3.300008472859474151e-05 -2.016299999525308223e-02 -2.122996945947125576e-03 -4.016000015753333485e-02 3.033000051833532797e-03 2.130999977042750265e-03 -1.118999858301027118e-03 -1.949100001064506954e-02 2.118999800306125073e-03 1.121000139465893513e-03 -2.081800001281631368e-02 -2.129003158163843539e-03 3.867199979674855459e-02 -4.228200002687677872e-02
5.701292971704609574e-05 -1.709859999960501864e-01 -3.619998295207385586e-04 -5.801293031656829484e-05 1.709939999959755597e-01 3.629998295182673609e-04 -1.800000684775131609e-05 4.499999801535605409e-05 -6.239999999455920132e-04 2.000000708568179473e-05 -4.799999786209777346e-05 6.259999999375490164e-04 -1.596000212453051008e-03 2.800999879183225551e-03 -1.109999939881636680e-04 2.998999991177202836e-03 1.160002268061524324e-04 -9.000016669916259705e-06 -1.511999796864373731e-03 -2.677000114231078715e-03 1.220000110200138106e-04 1.060000007137911426e-04 -8.999991977199402809e-06 5.999999423885207311e-06 8.399998946918665920e-05 1.380000063359603142e-04 -1.700000060151281390e-05 -7.999998931792616941e-05 -1.400000060334392795e-04 1.700000058143114672e-05 -8.000001103427311115e-05 1.439999939236081996e-04 -2.599999970224977399e-05 7.800001112094307289e-05 -1.449999940728709334e-04 2.799999971428835969e-05 -2.998999991398573501e-03 -1.130002268051535653e-04 1.000001666691963052e-05 1.597000212550760741e-03 -2.801999879103599274e-03 1.149999939836426828e-04 -1.060000004758606583e-04 5.999991979197165514e-06 -3.999999420888578052e-06 1.504999796951043490e-03 2.676000113703664966e-03 -1.200000109803759540e-04 2.114996955278317450e-03 4.004100015698822124e-02 -2.973000051670507231e-03 2.123003149873268353e-03 -3.856799979727925515e-02 4.220500002680601520e-02 -2.112999800475592882e-03 -1.120000139029092828e-03 2.080100001278219549e-02 -2.123999977022319064e-03 1.117999858820450249e-03 1.948100001060742645e-02 -6.930000826546425016e-04 2.585999968023247782e-03 2.045800000124216658e-02 8.500001088750260263e-04 3.100008441208944803e-05 2.014899999527715660e-02 -6.869996960555862023e-04 -2.570000032129274303e-03 1.985100000635925399e-02 5.310001116954260253e-04 -5.999939709967130236e-06 2.015299999707495168e-02 -1.333999570393027724e-03 -4.213000080808331112e-03 2.010500001157175531e-02 1.360000123048365648e-03 -1.709998772162539754e-04 1.994899999266380730e-02 1.336000102010219447e-03 1.360001213631753406e-04 2.034399999248962670e-02 -1.360000203660663518e-03 4.163999917277199335e-03 2.015700000334768455e-02 -3.191999987790375415e-02 -1.660023942951114543e-04 1.984500017635960206e-02 1.534900103507170696e-02 -1.307199883074858585e-02 8.411999928333050922e-03 1.708000111614272612e-03 -4.999850694152767742e-06 2.015199999057708247e-02 1.486399920422645966e-02 1.282500115568867109e-02 3.155599990514227488e-02 3.192199987748144813e-02 1.710023944383809512e-04 -1.985300017637563197e-02 -1.486799920432416849e-02 -1.282400115599518879e-02 -3.155999990512119158e-02 -1.709000111468531686e-03 2.999850617523638071e-06 -2.015299999056956518e-02 -1.534500103516941646e-02 1.307299883104711020e-02 -8.415999928356130214e-03 1.337999570435538955e-03 4.212000081104858538e-03 -2.011100001159283474e-02 1.355000203633064271e-03 -4.163999917660345107e-03 -2.016200000332008316e-02 -1.340000101847919249e-03 -1.380001216636986131e-04 -2.034199999246554674e-02 -1.354000122826994621e-03 1.679998776690366249e-04 -1.994999999269392657e-02 7.000000827137130418e-04 -2.586999967496832198e-03 -2.046100000127980614e-02 -5.310001115883243063e-04 3.999939701976121129e-06 -2.016099999707295087e-02 6.789996960445465529e-04 2.570000031522234277e-03 -1.985300000631509340e-02 -8.510001088419069269e-04 -3.100008448172643897e-05 -2.014299999527163765e-02 -2.113996955029347202e-03 -4.004400015690859349e-02 2.977000051667984173e-03 2.126999977157019873e-03 -1.119999858596556043e-03 -1.948400001062199072e-02 2.110999800691444259e-03 1.117000138875834598e-03 -2.080300001276816010e-02 -2.125003150159229977e-03 3.857199979713099580e-02 -4.220200002679897616e-02
6.501288710573958159e-05 -1.704219999954371401e-01 -3.539998301282636789e-04 -5.401288780132379371e-05 1.704319999962800591e-01 3.649998300575565090e-04 -2.300000757093474422e-05 5.499999764319799255e-05 -6.179999999279814967e-04 1.600000708568180254e-05 -4.799999816461880930e-05 6.259999999596284684e-04 -1.586000211010556203e-03 2.781999879940526971e-03 -1.099999940243835721e-04 2.984999991555353782e-03 1.110002257473288446e-04 -9.000016587643900411e-06 -1.500999798113096485e-03 -2.661000113406138384e-03 1.150000109433133841e-04 1.060000006657601596e-04 -7.999991972205021523e-06 1.099999942288633056e-05 7.299998925333561707e-05 1.410000055060252539e-04 -1.500000054379103424e-05 -7.899999001351031968e-05 -1.300000059468214202e-04 2.800000056592252544e-05 -6.700001070967270714e-05 1.399999949107970300e-04 -2.199999977001239047e-05 6.900001059705116022e-05 -1.379999947525443658e-04 2.899999975697492447e-05 -2.996999991549834184e-03 -1.110002266538930564e-04 1.000001665388216716e-05 1.588000211486417356e-03 -2.787999879785270883e-03 1.139999940193371148e-04 -9.700000032460016897e-05 3.999992659869489038e-06 -3.999999468569523785e-06 1.500999798339987257e-03 2.658000113406138419e-03 -1.150000109403167577e-04 2.111996966966735081e-03 3.989200015683724149e-02 -2.897000051505115113e-03 2.119003139727279172e-03 -3.844099979767966885e-02 4.210700002670123704e-02 -2.107999800822272802e-03 -1.116000138658932665e-03 2.079300001275060164e-02 -2.117999976693846209e-03 1.112999859265242225e-03 1.947200001057930452e-02 -7.000000823057380642e-04 2.579999967474856659e-03 2.043900000128679589e-02 8.540001089749602904e-04 2.800008469163631260e-05 2.012599999525807593e-02 -6.799996965259273544e-04 -2.564000031602859091e-03 1.984800000631462349e-02 5.270001114078167988e-04 -2.999940023475815132e-06 2.014199999709403305e-02 -1.340999571593719892e-03 -4.198000081349730246e-03 2.009300001159540841e-02 1.349000122624407745e-03 -1.669998780701621038e-04 1.992699999272052810e-02 1.343000101641460232e-03 1.400001218806006247e-04 2.033199999244698908e-02 -1.354000202828730542e-03 4.152999917730979852e-03 2.015700000332555294e-02 -3.180999987777457377e-02 -1.680023859797785972e-04 1.984100017575441549e-02 1.528800103186154016e-02 -1.302699883532707111e-02 8.446999928624812637e-03 1.710000111094252652e-03 1.000149445121208368e-06 2.013999999056004936e-02 1.481499920693151763e-02 1.278500115192485360e-02 3.149799990545270462e-02 3.180199987825595154e-02 1.620023853797309603e-04 -1.983600017570426310e-02 -1.481299920695911682e-02 -1.278500115177858693e-02 -3.150299990546374940e-02 -1.703000111461364314e-03 3.999851086288333657e-06 -2.013799999060368259e-02 -1.529100103154246160e-02 1.302299883510317502e-02 -8.443999928604258368e-03 1.331999571853729894e-03 4.195000080675050785e-03 -2.008700001154273621e-02 1.365000202819338475e-03 -4.151999916887061902e-03 -2.014500000338726587e-02 -1.336000101126960269e-03 -1.460001213402011499e-04 -2.032099999247963598e-02 -1.364000122646487128e-03 1.669998769317127159e-04 -1.993099999263773028e-02 6.860000822742666959e-04 -2.578999968525689558e-03 -2.043100000121051904e-02 -5.240001117418093251e-04 7.999940258357588911e-06 -2.013399999711558419e-02 6.879996964668566367e-04 2.565000032210898017e-03 -1.984500000635977882e-02 -8.550001090726698071e-04 -2.700008477126208129e-05 -2.012999999525355230e-02 -2.111996967009245781e-03 -3.989100015683125222e-02 2.903000051504116708e-03 2.119999976516634063e-03 -1.109999859104991759e-03 -1.946300001059334331e-02 2.107999800715171408e-03 1.118000138666923717e-03 -2.078500001275259898e-02 -2.119003139749358732e-03 3.844099979767567205e-02 -4.211100002670124104e-02
