-1.412880897389999973e+03
-1.412880899519999957e+03
-1.412880903600000011e+03
-1.412880910009999980e+03
-1.412880918490000113e+03
