-1.628599721838283956e-02 -3.654400122849588844e-02 3.222000126399308158e-03 1.646500091792051784e-02 -1.327499877032325623e-02 -1.559300007762433500e-02 9.159999627919703045e-04 5.100000695240371716e-04 2.469999944343853398e-04 -1.092999996159248503e-03 -1.380000838575290683e-04 -1.194999993828953135e-03 -1.813900067736051724e-02 1.035999864735512484e-02 1.923400008977629860e-02 2.025900240470426827e-02 -2.844399842193710143e-02 4.592099991658528391e-02 -2.084999868394777668e-03 -1.574000155415639004e-03 2.276000013081130174e-03 -7.999995820818587016e-05 -4.550000047149208916e-04 1.337000000896077347e-03 -1.100000300504220613e-04 4.419999922919830597e-04 6.120000001656807510e-04 4.740001573093692274e-04 -2.090999964302082265e-03 -1.510000005277607890e-04 -6.389998304871336108e-04 -2.115000046598672963e-03 1.731000005639811217e-03 2.679999774499069770e-04 2.470000195686956087e-04 -7.010000017260438043e-04 2.540003668780950095e-04 -5.000999982843591131e-03 -2.055999996406662235e-03 8.480000812121471542e-04 -1.092999936128242946e-03 -2.630000035890654557e-04 4.760000733053261881e-04 -9.369999635584910173e-04 4.419999983084960853e-04 -1.580999940433258427e-03 -7.760001194126136918e-04 1.590000095020196568e-04 7.129999485284419999e-03 -1.909995565135959132e-04 -9.586500003916578749e-02 -4.130999863741781006e-03 1.979997149386342539e-04 2.739800002260474321e-02 1.980001975242353458e-04 -1.214999965909698172e-03 1.913700000012070329e-02 -3.074999870058722686e-03 -2.690002127303407005e-04 1.985500001724225388e-02 -2.734000109777228425e-03 2.948999813721822887e-03 2.051800001214559854e-02 1.737999676253719743e-03 5.577000149187424059e-03 1.776199998483575862e-02 9.720000641906429177e-04 6.400000938876995336e-04 2.039799999399542069e-02 2.300008920852517657e-05 2.760000216600969883e-04 1.994299999959735226e-02 -2.579999941719381541e-04 1.315999999552952982e-03 1.908700000010959963e-02 1.982000245357402185e-03 -1.788999830185216680e-03 1.993799999084663876e-02 -2.482999812878624712e-03 -1.063000168476641851e-03 1.933500001476760877e-02 7.650000303456911841e-04 1.037000077541012184e-03 1.970599999474147851e-02 1.118001175037074222e-03 -1.514999991015427740e-02 5.297000008961779728e-03 -2.389999875718471552e-03 -1.060001597169714480e-04 2.106300001329833305e-02 3.649999361361781444e-04 2.302000047553607546e-03 1.997099999568583903e-02 8.880003436815187999e-04 -2.998999911692100742e-03 2.117199999809400018e-02 1.271999236708129533e-02 1.013330009676123022e-01 5.601999828568288500e-03 3.128999936768976121e-03 -6.739997840196847818e-04 -2.069000001659838592e-02 -4.270001745636958800e-04 8.619999479141307727e-04 -1.981399999850405255e-02 -1.557899934950270938e-02 -8.302001174151361559e-03 4.097000094286501297e-03 4.810999232496222626e-03 1.030400036599074184e-02 2.135999963151551974e-03 -6.688999700366082130e-03 -5.645000528926876100e-03 -2.306199995743902706e-02 -1.246000157928332016e-03 6.399998859449819097e-04 -1.984199999376154086e-02 3.202999918731489100e-03 -4.419997785119464720e-04 -2.077900001723859136e-02 -1.890001593057452037e-04 5.979999650620907792e-04 -2.066699999955407679e-02 3.769999857300192973e-04 -1.266999991409988599e-03 -1.994500000081541116e-02 -2.230001386402303176e-04 3.629999630140742176e-04 -2.014299999913166453e-02 3.600000259770976116e-05 -1.482000017090029723e-03 -1.983499999871837782e-02 -4.529996996130101474e-04 -5.265000051959590859e-03 -1.771899999224042094e-02 1.223999834654787696e-03 6.880000720664885454e-04 -2.052800000744352954e-02 -1.260000130779376530e-03 2.259998841330061758e-04 -2.059599999327072634e-02 5.100000914191846505e-04 -2.532999979552183912e-03 -1.814400000028497384e-02
-1.627199722090623760e-02 -3.651100122744205950e-02 3.217000126289067119e-03 1.644900091713825951e-02 -1.326399877152435042e-02 -1.558400007754700591e-02 9.149999626997804610e-04 5.110000694454102039e-04 2.439999944389063629e-04 -1.090999996072578417e-03 -1.390000837042708001e-04 -1.192999993838993883e-03 -1.811900067653575072e-02 1.034799864885274645e-02 1.921900008967788662e-02 2.024000240308514165e-02 -2.842499842340703853e-02 4.588799991667118910e-02 -2.077999868584677352e-03 -1.572000154893219391e-03 2.269000013040493782e-03 -8.299995821922556065e-05 -4.550000049438094143e-04 1.335000000912636752e-03 -1.100000299747918041e-04 4.409999922919830354e-04 6.120000001666796264e-04 4.760001569312179897e-04 -2.085999964150821954e-03 -1.510000005437948923e-04 -6.359998309519547532e-04 -2.109000046373780014e-03 1.729000005617258679e-03 2.629999774018759403e-04 2.480000191955387782e-04 -6.960000016994433245e-04 2.530003662896125973e-04 -4.992999982916225543e-03 -2.052999996409133384e-03 8.460000809096260765e-04 -1.088999936279503363e-03 -2.630000035820212315e-04 4.740000731540656249e-04 -9.349999637097514832e-04 4.419999983175380062e-04 -1.576999940503369130e-03 -7.750001191090937630e-04 1.600000094789413808e-04 7.128999486091472208e-03 -1.969995565252980157e-04 -9.580100003915427431e-02 -4.129999863700916859e-03 1.959997149942869805e-04 2.737800002260122254e-02 1.920001974894685497e-04 -1.215999966383457358e-03 1.911700000015481918e-02 -3.070999869790968888e-03 -2.740002124477972480e-04 1.983500001722516767e-02 -2.726000109596144784e-03 2.944999814304890239e-03 2.049600001210543504e-02 1.739999677364446537e-03 5.561000149320703342e-03 1.774399998484069846e-02 9.680000643236961111e-04 6.370000935681974404e-04 2.038099999402049473e-02 1.900008907052880600e-05 2.760000213326040184e-04 1.991799999961943457e-02 -2.559999944501553334e-04 1.317999999681239301e-03 1.906400000009656620e-02 1.983000245025634285e-03 -1.785999830128565200e-03 1.991899999083811962e-02 -2.480999812983501925e-03 -1.063000168344359862e-03 1.931600001475656733e-02 7.590000299808040982e-04 1.040000077062258610e-03 1.968099999477159953e-02 1.118001174020761754e-03 -1.513699991016027001e-02 5.291000008948794527e-03 -2.382999875937617806e-03 -1.050001592135304390e-04 2.103700001325869637e-02 3.629999362637115505e-04 2.299000047384367525e-03 1.995299999569987229e-02 8.850003434143413877e-04 -2.996999911939968175e-03 2.115099999810856127e-02 1.271499237156391293e-02 1.012730009672241638e-01 5.591999828655819585e-03 3.124999936921884526e-03 -6.749997843082215787e-04 -2.067600001657530703e-02 -4.250001741728571029e-04 8.579999480813733058e-04 -1.979799999851109688e-02 -1.556799934989741910e-02 -8.297001173322425885e-03 4.094000094220788706e-03 4.808999233473896032e-03 1.029100036583848084e-02 2.134999963175577328e-03 -6.676999700877286198e-03 -5.637000528002331610e-03 -2.304499995751325622e-02 -1.248000157991274988e-03 6.419998858097033427e-04 -1.982599999375249736e-02 3.194999918712704886e-03 -4.399997790930154705e-04 -2.075500001719643092e-02 -1.880001592488989145e-04 5.989999651616940719e-04 -2.064299999956059617e-02 3.809999856024858856e-04 -1.263999991089488064e-03 -1.992700000084048420e-02 -2.250001384762823553e-04 3.619999628787957404e-04 -2.012699999911962342e-02 3.200000265455603724e-05 -1.481000017368577391e-03 -1.981099999869729775e-02 -4.539997001462940380e-04 -5.257000052022235866e-03 -1.770599999224289206e-02 1.224999834748625093e-03 6.880000721590996855e-04 -2.051100000744904978e-02 -1.258000130442088558e-03 2.229998843042442893e-04 -2.057599999327877280e-02 5.090000922268136550e-04 -2.541999979604839602e-03 -1.812100000027046243e-02
-1.625999722272688380e-02 -3.648700122653549677e-02 3.216000126198856161e-03 1.643900091640403821e-02 -1.325399877227665876e-02 -1.558000007750179501e-02 9.139999627053003268e-04 5.110000693707788220e-04 2.449999944444261959e-04 -1.092999995915798061e-03 -1.410000838545324606e-04 -1.191999993825956219e-03 -1.810800067603393973e-02 1.034099864967968387e-02 1.921400008962416070e-02 2.022600240125732585e-02 -2.840199842448184672e-02 4.587199991672549770e-02 -2.080999868486967282e-03 -1.573000155116114360e-03 2.273000013058051882e-03 -8.499995805692534163e-05 -4.570000050930721723e-04 1.337000000925674332e-03 -1.120000301906428443e-04 4.439999921427202905e-04 6.140000001747226120e-04 4.780001569477775459e-04 -2.085999963996564704e-03 -1.480000005548345724e-04 -6.359998309409150815e-04 -2.109000046371782480e-03 1.731000005617258511e-03 2.629999774073958304e-04 2.480000191965376537e-04 -6.950000016994433002e-04 2.510003662951323846e-04 -4.992999983066486423e-03 -2.051999996398093471e-03 8.480000808395157580e-04 -1.087999936127244166e-03 -2.620000035940598629e-04 4.770000731651053696e-04 -9.349999634808629605e-04 4.439999983009784387e-04 -1.577999940416699009e-03 -7.760001191827262937e-04 1.620000094854601137e-04 7.127999486607619964e-03 -2.019995565759563725e-04 -9.577600003914375770e-02 -4.126999863317245068e-03 1.909997152221766417e-04 2.737900002258965987e-02 1.920001975871782319e-04 -1.216999966379461772e-03 1.912100000015581891e-02 -3.069999869942229270e-03 -2.720002123721669963e-04 1.983500001721764938e-02 -2.725000109299143512e-03 2.940999814379521415e-03 2.049500001210391095e-02 1.740999678467428959e-03 5.547000149404324697e-03 1.775199998484916497e-02 9.660000644048462098e-04 6.360000934179357770e-04 2.038199999403253471e-02 2.000008914615906047e-05 2.750000214082343056e-04 1.991799999961491388e-02 -2.559999943855648021e-04 1.316999999679241634e-03 1.906200000009756340e-02 1.985000245090224810e-03 -1.786999829979302352e-03 1.991699999082808051e-02 -2.480999812854320970e-03 -1.065000168348355413e-03 1.931200001475856520e-02 7.570000299918437214e-04 1.040000076912995846e-03 1.968299999478263784e-02 1.117001173718240592e-03 -1.513299991023590169e-02 5.291000008950318481e-03 -2.376999875819476703e-03 -1.070001587657421426e-04 2.103100001322757637e-02 3.639999363448616679e-04 2.298000047460996634e-03 1.995399999569535260e-02 8.820003437003028903e-04 -3.000999912169855562e-03 2.114799999812911474e-02 1.271699237400063937e-02 1.012410009673783973e-01 5.594999828676744218e-03 3.125999937019594260e-03 -6.759997842285957355e-04 -2.067200001657982719e-02 -4.250001739884774646e-04 8.559999480873665099e-04 -1.979199999850909941e-02 -1.556799934958385916e-02 -8.301001173320428014e-03 4.096000094224783172e-03 4.808999233792975864e-03 1.028700036584147791e-02 2.137999963179572794e-03 -6.671999700665307530e-03 -5.639000527613192634e-03 -2.303399995753886015e-02 -1.249000157882525523e-03 6.409998857400663139e-04 -1.981999999374598267e-02 3.186999918444951424e-03 -4.349997796780800605e-04 -2.073500001715726862e-02 -1.870001593024497497e-04 5.999999652413197469e-04 -2.063899999956711473e-02 3.799999856891558988e-04 -1.264999991163120703e-03 -1.992500000083396311e-02 -2.250001384652426564e-04 3.619999628807934913e-04 -2.012499999911962489e-02 3.100000267111561547e-05 -1.481000017441211130e-03 -1.980799999869177833e-02 -4.509996999508747093e-04 -5.259000051787353705e-03 -1.769799999225745227e-02 1.224999834787264107e-03 6.880000721660918138e-04 -2.050400000744904971e-02 -1.258000130512198925e-03 2.239998843052431619e-04 -2.057499999327977100e-02 5.060000929626846900e-04 -2.550999979821741946e-03 -1.811100000024491036e-02
-1.622999722788078317e-02 -3.641900122426858927e-02 3.214000125965336529e-03 1.641100091515861059e-02 -1.323599877437332990e-02 -1.555900007736521831e-02 9.149999628565608657e-04 5.090000694464091391e-04 2.449999944409041110e-04 -1.091999995845687778e-03 -1.420000837799010760e-04 -1.192999993830477475e-03 -1.807500067484206496e-02 1.032399865215850171e-02 1.919700008945898415e-02 2.018700239762048418e-02 -2.835799842748736380e-02 4.581599991689681850e-02 -2.075999868735938034e-03 -1.570000154741958828e-03 2.269000013027456034e-03 -8.299995835944636274e-05 -4.530000049418116690e-04 1.337000000910639049e-03 -1.110000298180114102e-04 4.389999922173516591e-04 6.130000001741971833e-04 4.790001567854772213e-04 -2.083999963922931933e-03 -1.500000005623521808e-04 -6.349998309353952755e-04 -2.109000046295152805e-03 1.732000005611738754e-03 2.609999773152060169e-04 2.490000190422804829e-04 -6.980000016894025768e-04 2.540003658523905315e-04 -4.986999982837598405e-03 -2.049999996420646346e-03 8.470000807638854764e-04 -1.086999936202874507e-03 -2.620000035895389025e-04 4.720000729382145847e-04 -9.319999638590143907e-04 4.439999983255811002e-04 -1.574999940427738825e-03 -7.760001189578332728e-04 1.600000094689005303e-04 7.125999487044266077e-03 -2.049995566892595298e-04 -9.573800003912973089e-02 -4.128999863372444235e-03 1.909997150609273454e-04 2.736900002260070006e-02 1.910001974729089906e-04 -1.215999966462084350e-03 1.911400000016033954e-02 -3.067999869894197981e-03 -2.730002122259008834e-04 1.983000001720761074e-02 -2.720000108954111553e-03 2.935999814751679218e-03 2.048900001208130497e-02 1.741999680867165534e-03 5.516000149489944798e-03 1.776199998487460949e-02 9.640000646041376993e-04 6.330000932616809206e-04 2.037699999404657056e-02 1.700008918867019220e-05 2.740000211753503109e-04 1.991199999963247022e-02 -2.539999943485735101e-04 1.315999999823509780e-03 1.905500000008751929e-02 1.985000245213885874e-03 -1.788999829984296670e-03 1.991199999083007738e-02 -2.480999812714100236e-03 -1.067000168350353212e-03 1.931000001476056507e-02 7.550000302557259048e-04 1.036000076754743432e-03 1.967599999479767089e-02 1.112001173712720906e-03 -1.513299991061505326e-02 5.290000008977918666e-03 -2.364999875409853555e-03 -1.130001578661700423e-04 2.102300001316733183e-02 3.639999363873728014e-04 2.297000047455003465e-03 1.994799999569635274e-02 8.710003439476254015e-04 -3.004999913011777244e-03 2.113799999819383074e-02 1.271299237854784693e-02 1.011800009670639072e-01 5.582999828759756082e-03 3.124999937565565815e-03 -6.829997843012294281e-04 -2.066900001656731684e-02 -4.260001738797281078e-04 8.549999480177295896e-04 -1.978599999850258126e-02 -1.556499934962249886e-02 -8.301001173100527528e-03 4.089000094208224308e-03 4.806999234095496627e-03 1.028300036569021816e-02 2.137999963194608076e-03 -6.655999700955140402e-03 -5.634000526387126714e-03 -2.301799995763217227e-02 -1.250000157784815838e-03 6.399998856684316426e-04 -1.981599999373946305e-02 3.176999918240139970e-03 -4.319997804303871126e-04 -2.073100001710506679e-02 -1.850001593339211628e-04 6.009999654005712894e-04 -2.063099999957915265e-02 3.809999855544549162e-04 -1.262999991084493880e-03 -1.992200000084148187e-02 -2.260001383730528073e-04 3.609999628081598361e-04 -2.012199999911310974e-02 3.000000270423474881e-05 -1.481000017510848135e-03 -1.980199999868625937e-02 -4.489996999674342767e-04 -5.259000051639089492e-03 -1.770099999226849505e-02 1.223999834733713278e-03 6.890000720944570826e-04 -2.050000000744452849e-02 -1.261000130263228774e-03 2.209998840823479004e-04 -2.057099999326021320e-02 5.080000942169274336e-04 -2.566999979662489949e-03 -1.810300000023997227e-02
-1.618099723576841426e-02 -3.631500122056670332e-02 3.210000125590980937e-03 1.635900091256839439e-02 -1.319999877828212896e-02 -1.553500007711414686e-02 9.109999627588511676e-04 5.100000691398926325e-04 2.409999944619846445e-04 -1.088999995840167923e-03 -1.420000835520114288e-04 -1.191999993847036796e-03 -1.801400067248038958e-02 1.028999865673399343e-02 1.915900008915623690e-02 2.012700239138131425e-02 -2.828199843211407979e-02 4.572699991715208773e-02 -2.069999869508799481e-03 -1.560000154291173776e-03 2.266000012984347757e-03 -8.499995850131488904e-05 -4.520000051050587189e-04 1.325000000920679988e-03 -1.080000294674594201e-04 4.339999924392480405e-04 6.080000001626319856e-04 4.670001564884761159e-04 -2.079999964829496156e-03 -1.490000005001094379e-04 -6.339998307692229452e-04 -2.112000046230510034e-03 1.721000005609215656e-03 2.609999780013981681e-04 2.400000190432793564e-04 -6.970000016804126734e-04 2.530003644430150155e-04 -4.967999982908234691e-03 -2.044999996434104968e-03 8.460000808339958192e-04 -1.087999936279503447e-03 -2.630000035830201070e-04 4.660000725324640273e-04 -9.269999643177902985e-04 4.389999983537058335e-04 -1.575999940940590871e-03 -7.690001190304669504e-04 1.630000094674282566e-04 7.122999487781207437e-03 -2.099995568512233012e-04 -9.567300003910815531e-02 -4.134999863023540098e-03 1.849997145881671578e-04 2.735000002263980948e-02 1.960001967905889179e-04 -1.207999966097917559e-03 1.910000000012474983e-02 -3.063999870554438842e-03 -2.650002119333685771e-04 1.982000001717754145e-02 -2.721000108614598980e-03 2.930999814669057145e-03 2.048200001209182081e-02 1.739999684093315084e-03 5.474000149347673684e-03 1.777099998492760041e-02 9.590000649640817486e-04 6.270000928665488225e-04 2.035999999408016209e-02 2.500008960381273004e-05 2.680000217734002576e-04 1.990499999959430277e-02 -2.469999938318491982e-04 1.308000000336939595e-03 1.903900000005687501e-02 1.980000245660500178e-03 -1.795999830377431258e-03 1.989699999086467011e-02 -2.482999812446345499e-03 -1.072000168521591466e-03 1.929000001477659820e-02 7.570000302154390607e-04 1.035000076885027320e-03 1.965499999478763013e-02 1.111001173258939446e-03 -1.512699991069068120e-02 5.290000008977445087e-03 -2.351999874511105908e-03 -1.270001569119440742e-04 2.099400001310955735e-02 3.659999365684570016e-04 2.293000047584288405e-03 1.992599999568930857e-02 8.570003442043398496e-04 -3.009999914092576119e-03 2.111599999827610055e-02 1.270099238399157934e-02 1.011070009661423630e-01 5.568999828898912006e-03 3.123999937718473750e-03 -6.839997843628754532e-04 -2.065500001656079762e-02 -4.210001739647503617e-04 8.569999484078674300e-04 -1.977399999853217752e-02 -1.555199934991562637e-02 -8.298001172129322242e-03 4.077000094133469144e-03 4.800999234942341862e-03 1.027100036522544946e-02 2.126999963239713329e-03 -6.638999701578967259e-03 -5.624000525077438653e-03 -2.299399995773599922e-02 -1.247000157956508178e-03 6.429998859053111335e-04 -1.980599999375901726e-02 3.161999917280673266e-03 -4.179997815468612524e-04 -2.071300001703625313e-02 -1.870001587824299315e-04 5.939999652533064318e-04 -2.062699999956111793e-02 3.749999862367749646e-04 -1.270999991524290927e-03 -1.990800000080037227e-02 -2.210001380578443771e-04 3.579999632022931653e-04 -2.010599999913770947e-02 3.400000314310443558e-05 -1.486000017197339380e-03 -1.979099999870334581e-02 -4.539996994639740064e-04 -5.265000052008251587e-03 -1.769199999223490180e-02 1.223999835172582921e-03 6.840000721054446996e-04 -2.048900000743953537e-02 -1.256000130704322754e-03 2.279998844764812016e-04 -2.055499999329480493e-02 5.100000959100401462e-04 -2.587999979492250878e-03 -1.808400000023003412e-02
-1.612799724624237874e-02 -3.617600121655130396e-02 3.217000125159584327e-03 1.630000090954812977e-02 -1.315699878270236260e-02 -1.549300007683142646e-02 9.269999616818200804e-04 5.230000703329957482e-04 2.239999943606815573e-04 -1.088999996255310453e-03 -1.360000835450193173e-04 -1.184999993853030203e-03 -1.793800066941983462e-02 1.024799866246091373e-02 1.913800008877868108e-02 2.005200238325526713e-02 -2.818199843788823586e-02 4.562499991746619271e-02 -2.060999868377641053e-03 -1.577000153638470062e-03 2.238000012951650141e-03 -1.049999569870619715e-04 -4.710000066036795817e-04 1.339000001050055571e-03 -1.070000307145348097e-04 4.509999925218704056e-04 6.150000001401312744e-04 4.470001554462121321e-04 -2.065999966339104876e-03 -1.460000004036966054e-04 -6.249998320902807897e-04 -2.093000045528861305e-03 1.742000005540558305e-03 2.609999764722334610e-04 2.600000190402826741e-04 -7.000000017003901471e-04 2.560003634763811432e-04 -4.954999982678346543e-03 -2.041999996463649946e-03 8.390000817525988417e-04 -1.099999936806917572e-03 -2.610000035323946474e-04 4.760000719754529106e-04 -9.199999635664821498e-04 4.339999982915151164e-04 -1.578999939320884296e-03 -7.910001192653486101e-04 1.550000095059631011e-04 7.120999488976874001e-03 -2.179995568956039835e-04 -9.556600003908913288e-02 -4.125999862364947667e-03 1.759997152648439965e-04 2.734600002259911927e-02 1.950001973216484378e-04 -1.213999966159563489e-03 1.911400000013626158e-02 -3.066999870010115106e-03 -2.730002121712470651e-04 1.980900001720209067e-02 -2.698000108108914059e-03 2.922999816390573109e-03 2.046400001197285282e-02 1.736999688394847774e-03 5.418000149132769575e-03 1.778299998500009957e-02 9.600000646433534115e-04 6.300000929251982698e-04 2.034299999407164494e-02 1.000008910422466411e-05 2.730000206169710974e-04 1.988299999967211087e-02 -2.499999935088965063e-04 1.303000000100060056e-03 1.902900000007842762e-02 1.981000246215863791e-03 -1.803999830310790966e-03 1.988799999086713829e-02 -2.474999812640118254e-03 -1.069000167910556191e-03 1.929600001472944054e-02 7.420000306526611114e-04 1.029000075747577014e-03 1.965199999487642415e-02 1.113001172415966885e-03 -1.511599991054141806e-02 5.288000008955418170e-03 -2.328999874881512722e-03 -1.240001551984189817e-04 2.096800001297960403e-02 3.649999361571865672e-04 2.298000047502665559e-03 1.991999999568983340e-02 8.350003451952775491e-04 -3.024999915782412580e-03 2.108999999841252443e-02 1.269199239270949083e-02 1.009910009654516883e-01 5.558999829064459677e-03 3.122999939005835762e-03 -6.999997844245214092e-04 -2.064100001653929387e-02 -4.320001734502503486e-04 8.509999475869221928e-04 -1.976299999846546640e-02 -1.554899934954464234e-02 -8.304001171917414423e-03 4.062000094122902687e-03 4.802999236628287781e-03 1.024900036538070429e-02 2.130999963250649124e-03 -6.611999702282296033e-03 -5.612000522998463782e-03 -2.295699995789702089e-02 -1.253000157008658235e-03 6.319998854725060325e-04 -1.978499999371491000e-02 3.137999916924024812e-03 -4.099997833170379450e-04 -2.066800001691176600e-02 -1.870001594007361190e-04 6.039999652782783446e-04 -2.060199999957110575e-02 3.839999860612106509e-04 -1.266999990820644271e-03 -1.988500000085404937e-02 -2.290001381058753512e-04 3.589999626022455088e-04 -2.010099999909455148e-02 3.800000295098049938e-05 -1.482000016874840962e-03 -1.977099999872941952e-02 -4.479996995970272596e-04 -5.262000051537489738e-03 -1.767499999227101562e-02 1.216999834192685056e-03 6.990000716040014510e-04 -2.046100000741588043e-02 -1.253000130291404609e-03 2.239998847233495209e-04 -2.053499999330737208e-02 5.090000983335037869e-04 -2.617999979539912918e-03 -1.805600000019454837e-02
