9.606988570000000394e+00 0.000000000000000000e+00 0.000000000000000000e+00 0.000000000000000000e+00 1.584742198000000002e+01 0.000000000000000000e+00 0.000000000000000000e+00 0.000000000000000000e+00 2.128406967000000094e+01
9.606988570000000394e+00 0.000000000000000000e+00 0.000000000000000000e+00 0.000000000000000000e+00 1.584742198000000002e+01 0.000000000000000000e+00 0.000000000000000000e+00 0.000000000000000000e+00 2.128406967000000094e+01
9.606988570000000394e+00 0.000000000000000000e+00 0.000000000000000000e+00 0.000000000000000000e+00 1.584742198000000002e+01 0.000000000000000000e+00 0.000000000000000000e+00 0.000000000000000000e+00 2.128406967000000094e+01
9.606988570000000394e+00 0.000000000000000000e+00 0.000000000000000000e+00 0.000000000000000000e+00 1.584742198000000002e+01 0.000000000000000000e+00 0.000000000000000000e+00 0.000000000000000000e+00 2.128406967000000094e+01
9.606988570000000394e+00 0.000000000000000000e+00 0.000000000000000000e+00 0.000000000000000000e+00 1.584742198000000002e+01 0.000000000000000000e+00 0.000000000000000000e+00 0.000000000000000000e+00 2.128406967000000094e+01
