1.299999999999999886e-04 1.584056999999999960e+01 4.803980000000000139e+00 1.601290000000000102e+00 2.634399999999999853e+00 4.803989999999999760e+00 1.299999999999999886e-04 3.528399999999999981e+00 2.262939999999999952e+00 1.601290000000000102e+00 8.871799999999999686e-01 2.262950000000000017e+00 3.202459999999999862e+00 1.584056999999999960e+01 4.803980000000000139e+00 4.803619999999999557e+00 2.634399999999999853e+00 4.803989999999999760e+00 3.202459999999999862e+00 3.528399999999999981e+00 2.262939999999999952e+00 4.803619999999999557e+00 8.871799999999999686e-01 2.262950000000000017e+00 6.404790000000000205e+00 1.584056999999999960e+01 4.803980000000000139e+00 8.005950000000000344e+00 2.634399999999999853e+00 4.803989999999999760e+00 6.404790000000000205e+00 3.528399999999999981e+00 2.262939999999999952e+00 8.005950000000000344e+00 8.871799999999999686e-01 2.262950000000000017e+00 1.299999999999999886e-04 5.275619999999999976e+00 4.803980000000000139e+00 1.601290000000000102e+00 7.916870000000000296e+00 4.803989999999999760e+00 1.299999999999999886e-04 8.810879999999999157e+00 2.262939999999999952e+00 1.601290000000000102e+00 6.169649999999999856e+00 2.262950000000000017e+00 3.202459999999999862e+00 5.275619999999999976e+00 4.803980000000000139e+00 4.803619999999999557e+00 7.916870000000000296e+00 4.803989999999999760e+00 3.202459999999999862e+00 8.810879999999999157e+00 2.262939999999999952e+00 4.803619999999999557e+00 6.169649999999999856e+00 2.262950000000000017e+00 6.404790000000000205e+00 5.275619999999999976e+00 4.803980000000000139e+00 8.005950000000000344e+00 7.916870000000000296e+00 4.803989999999999760e+00 6.404790000000000205e+00 8.810879999999999157e+00 2.262939999999999952e+00 8.005950000000000344e+00 6.169649999999999856e+00 2.262950000000000017e+00 1.299999999999999886e-04 1.055809999999999960e+01 4.803980000000000139e+00 1.601290000000000102e+00 1.319933999999999941e+01 4.803989999999999760e+00 1.299999999999999886e-04 1.409334999999999916e+01 2.262939999999999952e+00 1.601290000000000102e+00 1.145212000000000074e+01 2.262950000000000017e+00 3.202459999999999862e+00 1.055809999999999960e+01 4.803980000000000139e+00 4.803619999999999557e+00 1.319933999999999941e+01 4.803989999999999760e+00 3.202459999999999862e+00 1.409334999999999916e+01 2.262939999999999952e+00 4.803619999999999557e+00 1.145212000000000074e+01 2.262950000000000017e+00 6.404790000000000205e+00 1.055809999999999960e+01 4.803980000000000139e+00 8.005950000000000344e+00 1.319933999999999941e+01 4.803989999999999760e+00 6.404790000000000205e+00 1.409334999999999916e+01 2.262939999999999952e+00 8.005950000000000344e+00 1.145212000000000074e+01 2.262950000000000017e+00 1.299999999999999886e-04 1.584056999999999960e+01 1.189866999999999919e+01 1.601290000000000102e+00 2.634399999999999853e+00 1.189868000000000059e+01 1.299999999999999886e-04 3.528399999999999981e+00 9.357630000000000337e+00 1.601290000000000102e+00 8.871799999999999686e-01 9.357639999999999958e+00 3.202459999999999862e+00 1.584056999999999960e+01 1.189866999999999919e+01 4.803619999999999557e+00 2.634399999999999853e+00 1.189868000000000059e+01 3.202459999999999862e+00 3.528399999999999981e+00 9.357630000000000337e+00 4.803619999999999557e+00 8.871799999999999686e-01 9.357639999999999958e+00 6.404790000000000205e+00 1.584056999999999960e+01 1.189866999999999919e+01 8.005950000000000344e+00 2.634399999999999853e+00 1.189868000000000059e+01 6.404790000000000205e+00 3.528399999999999981e+00 9.357630000000000337e+00 8.005950000000000344e+00 8.871799999999999686e-01 9.357639999999999958e+00 1.299999999999999886e-04 5.275619999999999976e+00 1.189866999999999919e+01 1.601290000000000102e+00 7.916870000000000296e+00 1.189868000000000059e+01 1.299999999999999886e-04 8.810879999999999157e+00 9.357630000000000337e+00 1.601290000000000102e+00 6.169649999999999856e+00 9.357639999999999958e+00 3.202459999999999862e+00 5.275619999999999976e+00 1.189866999999999919e+01 4.803619999999999557e+00 7.916870000000000296e+00 1.189868000000000059e+01 3.202459999999999862e+00 8.810879999999999157e+00 9.357630000000000337e+00 4.803619999999999557e+00 6.169649999999999856e+00 9.357639999999999958e+00 6.404790000000000205e+00 5.275619999999999976e+00 1.189866999999999919e+01 8.005950000000000344e+00 7.916870000000000296e+00 1.189868000000000059e+01 6.404790000000000205e+00 8.810879999999999157e+00 9.357630000000000337e+00 8.005950000000000344e+00 6.169649999999999856e+00 9.357639999999999958e+00 1.299999999999999886e-04 1.055809999999999960e+01 1.189866999999999919e+01 1.601290000000000102e+00 1.319933999999999941e+01 1.189868000000000059e+01 1.299999999999999886e-04 1.409334999999999916e+01 9.357630000000000337e+00 1.601290000000000102e+00 1.145212000000000074e+01 9.357639999999999958e+00 3.202459999999999862e+00 1.055809999999999960e+01 1.189866999999999919e+01 4.803619999999999557e+00 1.319933999999999941e+01 1.189868000000000059e+01 3.202459999999999862e+00 1.409334999999999916e+01 9.357630000000000337e+00 4.803619999999999557e+00 1.145212000000000074e+01 9.357639999999999958e+00 6.404790000000000205e+00 1.055809999999999960e+01 1.189866999999999919e+01 8.005950000000000344e+00 1.319933999999999941e+01 1.189868000000000059e+01 6.404790000000000205e+00 1.409334999999999916e+01 9.357630000000000337e+00 8.005950000000000344e+00 1.145212000000000074e+01 9.357639999999999958e+00 1.299999999999999886e-04 1.584056999999999960e+01 1.899335999999999913e+01 1.601290000000000102e+00 2.634399999999999853e+00 1.899336999999999875e+01 1.299999999999999886e-04 3.528399999999999981e+00 1.645232000000000028e+01 1.601290000000000102e+00 8.871799999999999686e-01 1.645232999999999990e+01 3.202459999999999862e+00 1.584056999999999960e+01 1.899335999999999913e+01 4.803619999999999557e+00 2.634399999999999853e+00 1.899336999999999875e+01 3.202459999999999862e+00 3.528399999999999981e+00 1.645232000000000028e+01 4.803619999999999557e+00 8.871799999999999686e-01 1.645232999999999990e+01 6.404790000000000205e+00 1.584056999999999960e+01 1.899335999999999913e+01 8.005950000000000344e+00 2.634399999999999853e+00 1.899336999999999875e+01 6.404790000000000205e+00 3.528399999999999981e+00 1.645232000000000028e+01 8.005950000000000344e+00 8.871799999999999686e-01 1.645232999999999990e+01 1.299999999999999886e-04 5.275619999999999976e+00 1.899335999999999913e+01 1.601290000000000102e+00 7.916870000000000296e+00 1.899336999999999875e+01 1.299999999999999886e-04 8.810879999999999157e+00 1.645232000000000028e+01 1.601290000000000102e+00 6.169649999999999856e+00 1.645232999999999990e+01 3.202459999999999862e+00 5.275619999999999976e+00 1.899335999999999913e+01 4.803619999999999557e+00 7.916870000000000296e+00 1.899336999999999875e+01 3.202459999999999862e+00 8.810879999999999157e+00 1.645232000000000028e+01 4.803619999999999557e+00 6.169649999999999856e+00 1.645232999999999990e+01 6.404790000000000205e+00 5.275619999999999976e+00 1.899335999999999913e+01 8.005950000000000344e+00 7.916870000000000296e+00 1.899336999999999875e+01 6.404790000000000205e+00 8.810879999999999157e+00 1.645232000000000028e+01 8.005950000000000344e+00 6.169649999999999856e+00 1.645232999999999990e+01 1.299999999999999886e-04 1.055809999999999960e+01 1.899335999999999913e+01 1.601290000000000102e+00 1.319933999999999941e+01 1.899336999999999875e+01 1.299999999999999886e-04 1.409334999999999916e+01 1.645232000000000028e+01 1.601290000000000102e+00 1.145212000000000074e+01 1.645232999999999990e+01 3.202459999999999862e+00 1.055809999999999960e+01 1.899335999999999913e+01 4.803619999999999557e+00 1.319933999999999941e+01 1.899336999999999875e+01 3.202459999999999862e+00 1.409334999999999916e+01 1.645232000000000028e+01 4.803619999999999557e+00 1.145212000000000074e+01 1.645232999999999990e+01 6.404790000000000205e+00 1.055809999999999960e+01 1.899335999999999913e+01 8.005950000000000344e+00 1.319933999999999941e+01 1.899336999999999875e+01 6.404790000000000205e+00 1.409334999999999916e+01 1.645232000000000028e+01 8.005950000000000344e+00 1.145212000000000074e+01 1.645232999999999990e+01 1.299999999999999886e-04 1.760790000000000077e+00 3.533450000000000202e+00 1.299999999999999886e-04 3.497819999999999929e+00 5.836890000000000356e+00 1.601299999999999946e+00 2.664969999999999839e+00 1.230059999999999931e+00 1.399999999999999877e-04 2.373000000000000109e-02 1.230069999999999997e+00 1.601299999999999946e+00 4.402020000000000266e+00 3.533469999999999889e+00 1.601299999999999946e+00 8.565899999999999626e-01 5.836879999999999846e+00 3.202459999999999862e+00 1.760790000000000077e+00 3.533450000000000202e+00 3.202459999999999862e+00 3.497819999999999929e+00 5.836890000000000356e+00 4.803630000000000067e+00 2.664969999999999839e+00 1.230059999999999931e+00 3.202469999999999928e+00 2.373000000000000109e-02 1.230069999999999997e+00 4.803630000000000067e+00 4.402020000000000266e+00 3.533469999999999889e+00 4.803630000000000067e+00 8.565899999999999626e-01 5.836879999999999846e+00 6.404790000000000205e+00 1.760790000000000077e+00 3.533450000000000202e+00 6.404790000000000205e+00 3.497819999999999929e+00 5.836890000000000356e+00 8.005959999999999965e+00 2.664969999999999839e+00 1.230059999999999931e+00 6.404799999999999827e+00 2.373000000000000109e-02 1.230069999999999997e+00 8.005959999999999965e+00 4.402020000000000266e+00 3.533469999999999889e+00 8.005959999999999965e+00 8.565899999999999626e-01 5.836879999999999846e+00 1.299999999999999886e-04 7.043260000000000076e+00 3.533450000000000202e+00 1.299999999999999886e-04 8.780300000000000438e+00 5.836890000000000356e+00 1.601299999999999946e+00 7.947449999999999903e+00 1.230059999999999931e+00 1.399999999999999877e-04 5.306210000000000093e+00 1.230069999999999997e+00 1.601299999999999946e+00 9.684499999999999886e+00 3.533469999999999889e+00 1.601299999999999946e+00 6.139059999999999739e+00 5.836879999999999846e+00 3.202459999999999862e+00 7.043260000000000076e+00 3.533450000000000202e+00 3.202459999999999862e+00 8.780300000000000438e+00 5.836890000000000356e+00 4.803630000000000067e+00 7.947449999999999903e+00 1.230059999999999931e+00 3.202469999999999928e+00 5.306210000000000093e+00 1.230069999999999997e+00 4.803630000000000067e+00 9.684499999999999886e+00 3.533469999999999889e+00 4.803630000000000067e+00 6.139059999999999739e+00 5.836879999999999846e+00 6.404790000000000205e+00 7.043260000000000076e+00 3.533450000000000202e+00 6.404790000000000205e+00 8.780300000000000438e+00 5.836890000000000356e+00 8.005959999999999965e+00 7.947449999999999903e+00 1.230059999999999931e+00 6.404799999999999827e+00 5.306210000000000093e+00 1.230069999999999997e+00 8.005959999999999965e+00 9.684499999999999886e+00 3.533469999999999889e+00 8.005959999999999965e+00 6.139059999999999739e+00 5.836879999999999846e+00 1.299999999999999886e-04 1.232573999999999970e+01 3.533450000000000202e+00 1.299999999999999886e-04 1.406277000000000044e+01 5.836890000000000356e+00 1.601299999999999946e+00 1.322991999999999990e+01 1.230059999999999931e+00 1.399999999999999877e-04 1.058868000000000009e+01 1.230069999999999997e+00 1.601299999999999946e+00 1.496696999999999989e+01 3.533469999999999889e+00 1.601299999999999946e+00 1.142154000000000025e+01 5.836879999999999846e+00 3.202459999999999862e+00 1.232573999999999970e+01 3.533450000000000202e+00 3.202459999999999862e+00 1.406277000000000044e+01 5.836890000000000356e+00 4.803630000000000067e+00 1.322991999999999990e+01 1.230059999999999931e+00 3.202469999999999928e+00 1.058868000000000009e+01 1.230069999999999997e+00 4.803630000000000067e+00 1.496696999999999989e+01 3.533469999999999889e+00 4.803630000000000067e+00 1.142154000000000025e+01 5.836879999999999846e+00 6.404790000000000205e+00 1.232573999999999970e+01 3.533450000000000202e+00 6.404790000000000205e+00 1.406277000000000044e+01 5.836890000000000356e+00 8.005959999999999965e+00 1.322991999999999990e+01 1.230059999999999931e+00 6.404799999999999827e+00 1.058868000000000009e+01 1.230069999999999997e+00 8.005959999999999965e+00 1.496696999999999989e+01 3.533469999999999889e+00 8.005959999999999965e+00 1.142154000000000025e+01 5.836879999999999846e+00 1.299999999999999886e-04 1.760790000000000077e+00 1.062814000000000014e+01 1.299999999999999886e-04 3.497819999999999929e+00 1.293158000000000030e+01 1.601299999999999946e+00 2.664969999999999839e+00 8.324749999999999872e+00 1.399999999999999877e-04 2.373000000000000109e-02 8.324759999999999494e+00 1.601299999999999946e+00 4.402020000000000266e+00 1.062815999999999939e+01 1.601299999999999946e+00 8.565899999999999626e-01 1.293157000000000068e+01 3.202459999999999862e+00 1.760790000000000077e+00 1.062814000000000014e+01 3.202459999999999862e+00 3.497819999999999929e+00 1.293158000000000030e+01 4.803630000000000067e+00 2.664969999999999839e+00 8.324749999999999872e+00 3.202469999999999928e+00 2.373000000000000109e-02 8.324759999999999494e+00 4.803630000000000067e+00 4.402020000000000266e+00 1.062815999999999939e+01 4.803630000000000067e+00 8.565899999999999626e-01 1.293157000000000068e+01 6.404790000000000205e+00 1.760790000000000077e+00 1.062814000000000014e+01 6.404790000000000205e+00 3.497819999999999929e+00 1.293158000000000030e+01 8.005959999999999965e+00 2.664969999999999839e+00 8.324749999999999872e+00 6.404799999999999827e+00 2.373000000000000109e-02 8.324759999999999494e+00 8.005959999999999965e+00 4.402020000000000266e+00 1.062815999999999939e+01 8.005959999999999965e+00 8.565899999999999626e-01 1.293157000000000068e+01 1.299999999999999886e-04 7.043260000000000076e+00 1.062814000000000014e+01 1.299999999999999886e-04 8.780300000000000438e+00 1.293158000000000030e+01 1.601299999999999946e+00 7.947449999999999903e+00 8.324749999999999872e+00 1.399999999999999877e-04 5.306210000000000093e+00 8.324759999999999494e+00 1.601299999999999946e+00 9.684499999999999886e+00 1.062815999999999939e+01 1.601299999999999946e+00 6.139059999999999739e+00 1.293157000000000068e+01 3.202459999999999862e+00 7.043260000000000076e+00 1.062814000000000014e+01 3.202459999999999862e+00 8.780300000000000438e+00 1.293158000000000030e+01 4.803630000000000067e+00 7.947449999999999903e+00 8.324749999999999872e+00 3.202469999999999928e+00 5.306210000000000093e+00 8.324759999999999494e+00 4.803630000000000067e+00 9.684499999999999886e+00 1.062815999999999939e+01 4.803630000000000067e+00 6.139059999999999739e+00 1.293157000000000068e+01 6.404790000000000205e+00 7.043260000000000076e+00 1.062814000000000014e+01 6.404790000000000205e+00 8.780300000000000438e+00 1.293158000000000030e+01 8.005959999999999965e+00 7.947449999999999903e+00 8.324749999999999872e+00 6.404799999999999827e+00 5.306210000000000093e+00 8.324759999999999494e+00 8.005959999999999965e+00 9.684499999999999886e+00 1.062815999999999939e+01 8.005959999999999965e+00 6.139059999999999739e+00 1.293157000000000068e+01 1.299999999999999886e-04 1.232573999999999970e+01 1.062814000000000014e+01 1.299999999999999886e-04 1.406277000000000044e+01 1.293158000000000030e+01 1.601299999999999946e+00 1.322991999999999990e+01 8.324749999999999872e+00 1.399999999999999877e-04 1.058868000000000009e+01 8.324759999999999494e+00 1.601299999999999946e+00 1.496696999999999989e+01 1.062815999999999939e+01 1.601299999999999946e+00 1.142154000000000025e+01 1.293157000000000068e+01 3.202459999999999862e+00 1.232573999999999970e+01 1.062814000000000014e+01 3.202459999999999862e+00 1.406277000000000044e+01 1.293158000000000030e+01 4.803630000000000067e+00 1.322991999999999990e+01 8.324749999999999872e+00 3.202469999999999928e+00 1.058868000000000009e+01 8.324759999999999494e+00 4.803630000000000067e+00 1.496696999999999989e+01 1.062815999999999939e+01 4.803630000000000067e+00 1.142154000000000025e+01 1.293157000000000068e+01 6.404790000000000205e+00 1.232573999999999970e+01 1.062814000000000014e+01 6.404790000000000205e+00 1.406277000000000044e+01 1.293158000000000030e+01 8.005959999999999965e+00 1.322991999999999990e+01 8.324749999999999872e+00 6.404799999999999827e+00 1.058868000000000009e+01 8.324759999999999494e+00 8.005959999999999965e+00 1.496696999999999989e+01 1.062815999999999939e+01 8.005959999999999965e+00 1.142154000000000025e+01 1.293157000000000068e+01 1.299999999999999886e-04 1.760790000000000077e+00 1.772282999999999831e+01 1.299999999999999886e-04 3.497819999999999929e+00 2.002627000000000024e+01 1.601299999999999946e+00 2.664969999999999839e+00 1.541943999999999981e+01 1.399999999999999877e-04 2.373000000000000109e-02 1.541944999999999943e+01 1.601299999999999946e+00 4.402020000000000266e+00 1.772285000000000110e+01 1.601299999999999946e+00 8.565899999999999626e-01 2.002626000000000062e+01 3.202459999999999862e+00 1.760790000000000077e+00 1.772282999999999831e+01 3.202459999999999862e+00 3.497819999999999929e+00 2.002627000000000024e+01 4.803630000000000067e+00 2.664969999999999839e+00 1.541943999999999981e+01 3.202469999999999928e+00 2.373000000000000109e-02 1.541944999999999943e+01 4.803630000000000067e+00 4.402020000000000266e+00 1.772285000000000110e+01 4.803630000000000067e+00 8.565899999999999626e-01 2.002626000000000062e+01 6.404790000000000205e+00 1.760790000000000077e+00 1.772282999999999831e+01 6.404790000000000205e+00 3.497819999999999929e+00 2.002627000000000024e+01 8.005959999999999965e+00 2.664969999999999839e+00 1.541943999999999981e+01 6.404799999999999827e+00 2.373000000000000109e-02 1.541944999999999943e+01 8.005959999999999965e+00 4.402020000000000266e+00 1.772285000000000110e+01 8.005959999999999965e+00 8.565899999999999626e-01 2.002626000000000062e+01 1.299999999999999886e-04 7.043260000000000076e+00 1.772282999999999831e+01 1.299999999999999886e-04 8.780300000000000438e+00 2.002627000000000024e+01 1.601299999999999946e+00 7.947449999999999903e+00 1.541943999999999981e+01 1.399999999999999877e-04 5.306210000000000093e+00 1.541944999999999943e+01 1.601299999999999946e+00 9.684499999999999886e+00 1.772285000000000110e+01 1.601299999999999946e+00 6.139059999999999739e+00 2.002626000000000062e+01 3.202459999999999862e+00 7.043260000000000076e+00 1.772282999999999831e+01 3.202459999999999862e+00 8.780300000000000438e+00 2.002627000000000024e+01 4.803630000000000067e+00 7.947449999999999903e+00 1.541943999999999981e+01 3.202469999999999928e+00 5.306210000000000093e+00 1.541944999999999943e+01 4.803630000000000067e+00 9.684499999999999886e+00 1.772285000000000110e+01 4.803630000000000067e+00 6.139059999999999739e+00 2.002626000000000062e+01 6.404790000000000205e+00 7.043260000000000076e+00 1.772282999999999831e+01 6.404790000000000205e+00 8.780300000000000438e+00 2.002627000000000024e+01 8.005959999999999965e+00 7.947449999999999903e+00 1.541943999999999981e+01 6.404799999999999827e+00 5.306210000000000093e+00 1.541944999999999943e+01 8.005959999999999965e+00 9.684499999999999886e+00 1.772285000000000110e+01 8.005959999999999965e+00 6.139059999999999739e+00 2.002626000000000062e+01 1.299999999999999886e-04 1.232573999999999970e+01 1.772282999999999831e+01 1.299999999999999886e-04 1.406277000000000044e+01 2.002627000000000024e+01 1.601299999999999946e+00 1.322991999999999990e+01 1.541943999999999981e+01 1.399999999999999877e-04 1.058868000000000009e+01 1.541944999999999943e+01 1.601299999999999946e+00 1.496696999999999989e+01 1.772285000000000110e+01 1.601299999999999946e+00 1.142154000000000025e+01 2.002626000000000062e+01 3.202459999999999862e+00 1.232573999999999970e+01 1.772282999999999831e+01 3.202459999999999862e+00 1.406277000000000044e+01 2.002627000000000024e+01 4.803630000000000067e+00 1.322991999999999990e+01 1.541943999999999981e+01 3.202469999999999928e+00 1.058868000000000009e+01 1.541944999999999943e+01 4.803630000000000067e+00 1.496696999999999989e+01 1.772285000000000110e+01 4.803630000000000067e+00 1.142154000000000025e+01 2.002626000000000062e+01 6.404790000000000205e+00 1.232573999999999970e+01 1.772282999999999831e+01 6.404790000000000205e+00 1.406277000000000044e+01 2.002627000000000024e+01 8.005959999999999965e+00 1.322991999999999990e+01 1.541943999999999981e+01 6.404799999999999827e+00 1.058868000000000009e+01 1.541944999999999943e+01 8.005959999999999965e+00 1.496696999999999989e+01 1.772285000000000110e+01 8.005959999999999965e+00 1.142154000000000025e+01 2.002626000000000062e+01