-2.821037375410000095e+03
-2.820999284819999957e+03
-2.820885225630000150e+03
-2.820696164339999996e+03
-2.820433525160000045e+03
