1.359999999999999989e-04 3.307000000000000044e-03 1.991000000000000148e-03 9.899999999999999404e-05 3.066999999999999848e-03 1.546999999999999981e-03 2.099999999999999884e-05 -1.337000000000000081e-03 -1.551999999999999994e-03 -6.000000000000000152e-05 -3.665999999999999988e-03 -2.044999999999999943e-03 1.900000000000000105e-05 3.556999999999999832e-03 2.226000000000000114e-03 -3.300000000000000253e-05 3.582999999999999814e-03 2.745000000000000044e-03 1.800000000000000113e-04 -2.879000000000000049e-03 -1.876999999999999979e-03 1.240000000000000054e-04 -4.846999999999999746e-03 -1.752000000000000085e-03 1.810000000000000085e-04 3.579999999999999849e-03 2.102000000000000136e-03 1.440000000000000036e-04 3.082999999999999803e-03 1.572000000000000047e-03 -6.999999999999999387e-05 -2.811999999999999830e-03 -1.902999999999999961e-03 7.299999999999999903e-05 -3.508999999999999966e-03 -1.975000000000000193e-03 1.330000000000000073e-04 2.938000000000000073e-03 2.592999999999999819e-03 2.039999999999999984e-04 3.131999999999999802e-03 1.815999999999999906e-03 1.389999999999999905e-04 -4.662999999999999610e-03 -1.374000000000000004e-03 -4.870000000000000197e-04 -3.237999999999999993e-03 -1.923999999999999929e-03 -2.429999999999999977e-04 3.400999999999999943e-03 2.102999999999999835e-03 1.200000000000000030e-04 2.948000000000000100e-03 1.732000000000000033e-03 8.500000000000000611e-05 -3.341999999999999919e-03 -1.628000000000000107e-03 8.500000000000000611e-05 -3.301999999999999814e-03 -1.889999999999999970e-03 3.020000000000000223e-04 3.363999999999999803e-03 2.138000000000000143e-03 6.999999999999999895e-06 3.229999999999999798e-03 1.918999999999999916e-03 -6.999999999999999387e-05 -3.459999999999999968e-03 -1.732000000000000033e-03 7.950000000000000252e-04 -3.236000000000000161e-03 -1.905999999999999925e-03 -5.000000000000000240e-05 3.664999999999999855e-03 2.608000000000000075e-03 3.110000000000000243e-04 3.161000000000000181e-03 1.864999999999999904e-03 1.200000000000000030e-04 -3.298999999999999849e-03 -2.216999999999999787e-03 -1.119999999999999983e-04 -2.900999999999999933e-03 -2.125000000000000153e-03 1.550000000000000000e-04 3.106999999999999953e-03 1.482000000000000027e-03 7.700000000000000139e-05 2.720999999999999894e-03 2.351999999999999924e-03 7.540000000000000044e-04 -3.196000000000000056e-03 -2.305999999999999890e-03 7.499999999999999343e-05 -1.472000000000000001e-03 -1.688999999999999963e-03 7.100000000000000462e-05 3.124000000000000041e-03 1.477000000000000014e-03 -1.969999999999999909e-04 3.158999999999999916e-03 1.824000000000000100e-03 -4.670000000000000214e-04 -3.200000000000000153e-03 -2.226000000000000114e-03 1.530000000000000056e-04 -2.987000000000000072e-03 -2.014000000000000165e-03 1.369999999999999961e-04 3.226000000000000135e-03 1.747999999999999988e-03 4.699999999999999724e-05 3.158000000000000217e-03 1.449999999999999900e-03 7.600000000000000418e-05 -1.304000000000000038e-03 -1.502000000000000080e-03 -7.100000000000000462e-05 -3.752000000000000127e-03 -2.023000000000000059e-03 6.899999999999999667e-05 3.436999999999999951e-03 2.062000000000000031e-03 3.999999999999999819e-06 3.579000000000000150e-03 2.675999999999999993e-03 1.959999999999999937e-04 -2.814999999999999794e-03 -1.953000000000000092e-03 1.210000000000000002e-04 -4.906999999999999904e-03 -1.722999999999999922e-03 1.399999999999999877e-04 3.494000000000000144e-03 1.913999999999999903e-03 1.420000000000000092e-04 3.154000000000000119e-03 1.471000000000000085e-03 -1.430000000000000064e-04 -2.808000000000000166e-03 -1.923000000000000013e-03 8.000000000000000654e-05 -3.645999999999999935e-03 -1.869999999999999917e-03 1.010000000000000020e-04 2.902000000000000066e-03 2.562000000000000041e-03 1.930000000000000021e-04 3.299999999999999982e-03 2.010000000000000068e-03 1.849999999999999973e-04 -4.832000000000000357e-03 -1.381999999999999982e-03 -4.670000000000000214e-04 -3.310000000000000008e-03 -2.150000000000000001e-03 -2.629999999999999959e-04 3.397999999999999979e-03 2.047999999999999907e-03 1.340000000000000045e-04 3.111000000000000050e-03 1.972999999999999927e-03 8.000000000000000654e-05 -3.490000000000000047e-03 -1.631000000000000071e-03 6.200000000000000270e-05 -3.370000000000000166e-03 -2.175999999999999983e-03 3.680000000000000003e-04 3.314000000000000105e-03 2.119999999999999923e-03 3.100000000000000135e-05 3.318999999999999902e-03 2.158000000000000196e-03 -1.150000000000000035e-04 -3.686000000000000040e-03 -1.724000000000000055e-03 7.929999999999999766e-04 -3.312999999999999973e-03 -2.137000000000000011e-03 -2.500000000000000120e-05 3.648999999999999900e-03 2.876999999999999783e-03 3.759999999999999779e-04 3.007000000000000124e-03 1.941999999999999933e-03 1.179999999999999951e-04 -3.096999999999999927e-03 -1.984999999999999785e-03 -1.259999999999999998e-04 -2.858999999999999996e-03 -1.941000000000000017e-03 1.679999999999999907e-04 3.106999999999999953e-03 1.745000000000000023e-03 6.099999999999999872e-05 2.573999999999999899e-03 2.432000000000000134e-03 7.600000000000000418e-04 -2.971999999999999816e-03 -2.027000000000000156e-03 1.599999999999999928e-05 -1.413999999999999892e-03 -1.477000000000000014e-03 2.099999999999999884e-05 3.096999999999999927e-03 1.757000000000000098e-03 -2.069999999999999900e-04 3.004000000000000160e-03 1.889000000000000054e-03 -4.690000000000000158e-04 -3.007000000000000124e-03 -1.958999999999999804e-03 2.120000000000000031e-04 -2.920999999999999985e-03 -1.827000000000000065e-03 1.119999999999999983e-04 3.063999999999999883e-03 1.915999999999999951e-03 8.299999999999999815e-05 2.985999999999999939e-03 1.503999999999999912e-03 1.900000000000000105e-05 -1.286000000000000034e-03 -1.523999999999999964e-03 2.900000000000000017e-05 -3.704999999999999960e-03 -1.734999999999999997e-03 -2.699999999999999899e-05 3.331999999999999892e-03 2.062000000000000031e-03 -6.399999999999999710e-05 3.572999999999999787e-03 2.612999999999999871e-03 2.059999999999999928e-04 -2.870000000000000155e-03 -1.801000000000000083e-03 6.000000000000000152e-05 -4.852999999999999675e-03 -1.451999999999999949e-03 2.559999999999999884e-04 3.307000000000000044e-03 2.017000000000000130e-03 1.800000000000000113e-04 3.010000000000000089e-03 1.523999999999999964e-03 -1.029999999999999964e-04 -2.726999999999999823e-03 -1.889999999999999970e-03 4.199999999999999768e-05 -3.546999999999999806e-03 -1.637999999999999916e-03 1.019999999999999992e-04 2.769000000000000194e-03 2.462999999999999912e-03 2.359999999999999902e-04 3.432000000000000155e-03 1.768000000000000040e-03 1.269999999999999970e-04 -4.577000000000000339e-03 -1.505000000000000044e-03 -4.530000000000000064e-04 -3.178999999999999968e-03 -2.144000000000000072e-03 -1.789999999999999870e-04 3.318999999999999902e-03 1.949999999999999910e-03 1.910000000000000077e-04 3.210000000000000180e-03 1.691000000000000012e-03 1.160000000000000007e-04 -3.289999999999999956e-03 -1.719000000000000042e-03 1.310000000000000129e-04 -3.249000000000000152e-03 -2.102999999999999835e-03 2.950000000000000148e-04 3.297000000000000017e-03 1.936000000000000004e-03 -6.700000000000000226e-05 3.517000000000000161e-03 1.882999999999999908e-03 -9.299999999999999727e-05 -3.471999999999999826e-03 -1.791000000000000057e-03 7.249999999999999500e-04 -3.214999999999999976e-03 -2.174000000000000151e-03 -1.000000000000000048e-04 3.850000000000000124e-03 2.624000000000000030e-03 3.289999999999999739e-04 3.043000000000000132e-03 1.887999999999999921e-03 1.269999999999999970e-04 -3.412000000000000102e-03 -1.729000000000000068e-03 -1.269999999999999970e-04 -2.958999999999999825e-03 -1.933999999999999955e-03 2.049999999999999956e-04 3.321999999999999866e-03 1.472000000000000001e-03 5.700000000000000314e-05 2.563000000000000174e-03 2.423999999999999939e-03 7.590000000000000175e-04 -3.229000000000000099e-03 -1.786999999999999960e-03 -1.099999999999999971e-05 -1.544000000000000017e-03 -1.474999999999999966e-03 6.099999999999999872e-05 3.242000000000000090e-03 1.547999999999999897e-03 -1.740000000000000010e-04 3.001000000000000195e-03 1.900999999999999912e-03 -4.889999999999999599e-04 -3.239999999999999825e-03 -1.763000000000000027e-03 2.620000000000000258e-04 -3.090999999999999998e-03 -1.842000000000000104e-03 -2.099999999999999884e-05 -5.060000000000000478e-04 8.800000000000000313e-04 -6.299999999999999990e-05 1.030000000000000100e-03 -4.179999999999999688e-03 -2.199999999999999943e-05 -1.371999999999999956e-03 4.328000000000000250e-03 -1.060000000000000016e-04 -1.910999999999999938e-03 3.917999999999999608e-03 -4.699999999999999724e-05 -2.649999999999999903e-04 -3.000000000000000076e-06 2.610000000000000015e-04 1.227999999999999925e-03 -4.081000000000000426e-03 -1.550000000000000000e-04 -6.909999999999999910e-04 8.729999999999999696e-04 -1.310000000000000129e-04 1.360000000000000098e-03 -3.975000000000000235e-03 -7.999999999999999638e-06 -1.209000000000000005e-03 4.231999999999999651e-03 -3.119999999999999944e-04 -2.501999999999999884e-03 4.674000000000000203e-03 -6.899999999999999667e-05 1.079999999999999960e-04 7.929999999999999766e-04 -6.000000000000000152e-05 1.250999999999999942e-03 -3.876999999999999804e-03 6.999999999999999387e-05 -6.089999999999999494e-04 9.079999999999999530e-04 -2.300000000000000002e-05 1.301999999999999989e-03 -3.856000000000000053e-03 -2.349999999999999930e-04 -1.368999999999999991e-03 4.500999999999999793e-03 1.269999999999999970e-04 -2.556999999999999811e-03 4.742999999999999820e-03 -2.099999999999999884e-05 -2.259999999999999910e-04 -6.099999999999999872e-05 -4.719999999999999803e-04 1.224999999999999960e-03 -4.127999999999999725e-03 -1.279999999999999942e-04 2.599999999999999772e-04 8.220000000000000310e-04 -2.010000000000000068e-04 1.569000000000000082e-03 -4.405000000000000061e-03 1.820000000000000057e-04 -1.510000000000000057e-03 4.667000000000000141e-03 -9.399999999999999448e-05 -1.129000000000000012e-03 3.917999999999999608e-03 8.700000000000000051e-05 -2.599999999999999840e-05 1.550000000000000000e-04 2.159999999999999919e-04 1.137999999999999906e-03 -4.510000000000000120e-03 1.150000000000000035e-04 -9.200000000000000007e-05 4.620000000000000083e-04 -3.620000000000000171e-04 1.673999999999999924e-03 -4.663999999999999743e-03 -1.620000000000000075e-04 -8.959999999999999866e-04 3.755000000000000091e-03 -1.240000000000000054e-04 -1.299000000000000024e-03 4.168999999999999963e-03 -2.099999999999999884e-05 1.540000000000000028e-04 8.899999999999999491e-05 -5.500000000000000196e-05 1.245999999999999929e-03 -4.226999999999999855e-03 -1.240000000000000054e-04 -2.199999999999999943e-05 4.369999999999999970e-04 2.489999999999999809e-04 1.557999999999999923e-03 -4.446000000000000299e-03 -2.779999999999999811e-04 -1.552999999999999910e-03 4.690999999999999857e-03 -1.019999999999999992e-04 -1.281999999999999936e-03 4.226999999999999855e-03 -9.000000000000000567e-05 -6.000000000000000152e-05 1.340000000000000045e-04 -2.999999999999999737e-04 9.759999999999999796e-04 -4.422999999999999848e-03 -5.000000000000000240e-05 3.629999999999999872e-04 7.680000000000000195e-04 -1.200000000000000030e-04 1.820999999999999919e-03 -3.954000000000000049e-03 -2.020000000000000040e-04 -1.347000000000000107e-03 3.989000000000000358e-03 -1.589999999999999888e-04 -4.130000000000000099e-04 3.628999999999999847e-03 -6.399999999999999710e-05 -3.449999999999999833e-04 1.019999999999999992e-04 1.279999999999999942e-04 2.317000000000000049e-03 -4.111000000000000071e-03 -3.800000000000000209e-05 -4.600000000000000004e-05 -3.499999999999999693e-05 -1.789999999999999870e-04 1.500999999999999947e-03 -3.963000000000000377e-03 -9.100000000000000287e-05 -1.258999999999999920e-03 3.743999999999999932e-03 -1.340000000000000045e-04 -4.650000000000000270e-04 3.801999999999999824e-03 -2.900000000000000017e-05 -5.899999999999999754e-05 4.229999999999999819e-04 -1.559999999999999972e-04 2.001000000000000174e-03 -4.223000000000000191e-03 -8.500000000000000611e-05 -4.000000000000000327e-05 -2.900000000000000017e-05 1.469999999999999953e-04 1.564000000000000069e-03 -4.124000000000000062e-03 -1.600000000000000131e-04 -1.322000000000000041e-03 3.996000000000000420e-03 -1.350000000000000017e-04 -5.010000000000000347e-04 3.785000000000000170e-03 2.799999999999999958e-05 -3.069999999999999812e-04 1.200000000000000030e-04 -1.730000000000000038e-04 2.356000000000000021e-03 -4.015999999999999605e-03 -6.600000000000000506e-05 -6.200000000000000270e-05 -2.649999999999999903e-04 -1.410000000000000120e-04 2.314999999999999784e-03 -5.565999999999999767e-03 1.299999999999999920e-05 -9.319999999999999942e-04 3.297000000000000017e-03 -4.699999999999999724e-05 -1.466000000000000072e-03 2.755000000000000070e-03 -7.399999999999999623e-05 4.640000000000000027e-04 -4.229999999999999819e-04 3.330000000000000169e-04 1.536999999999999955e-03 -5.742999999999999841e-03 -6.600000000000000506e-05 -2.680000000000000090e-04 -1.879999999999999890e-04 -2.649999999999999903e-04 2.540999999999999856e-03 -5.322999999999999607e-03 -7.200000000000000182e-05 -8.499999999999999526e-04 3.174999999999999871e-03 -2.660000000000000146e-04 -2.072000000000000057e-03 3.628000000000000148e-03 -6.399999999999999710e-05 8.429999999999999993e-04 3.119999999999999944e-04 -1.489999999999999897e-04 1.515999999999999986e-03 -5.512999999999999672e-03 4.800000000000000122e-05 -2.320000000000000014e-04 -1.749999999999999982e-04 1.450000000000000009e-04 2.602000000000000146e-03 -5.316999999999999678e-03 -2.210000000000000050e-04 -9.759999999999999796e-04 3.566999999999999858e-03 4.000000000000000327e-05 -2.112999999999999861e-03 3.689000000000000005e-03 -7.700000000000000139e-05 4.560000000000000251e-04 -4.589999999999999896e-04 -5.249999999999999676e-04 1.595999999999999979e-03 -5.736999999999999912e-03 -8.000000000000000654e-05 4.800000000000000122e-04 1.054000000000000032e-03 -6.799999999999999946e-05 1.580999999999999940e-03 -4.716999999999999839e-03 9.899999999999999404e-05 -2.307000000000000023e-03 4.989000000000000379e-03 -5.399999999999999798e-05 -1.082999999999999978e-03 3.689000000000000005e-03 4.500000000000000283e-05 -3.280000000000000038e-04 8.130000000000000291e-04 1.930000000000000021e-04 2.033000000000000085e-03 -5.377999999999999968e-03 7.499999999999999343e-05 1.820000000000000057e-04 6.099999999999999737e-04 -3.860000000000000041e-04 1.750999999999999952e-03 -5.026000000000000086e-03 -1.530000000000000056e-04 -1.771000000000000005e-03 4.139999999999999583e-03 -1.550000000000000000e-04 -1.302999999999999905e-03 3.860999999999999849e-03 -1.900000000000000105e-05 -2.149999999999999947e-04 8.050000000000000515e-04 -1.179999999999999951e-04 2.275000000000000112e-03 -5.244999999999999662e-03 -9.500000000000000523e-05 1.840000000000000001e-04 6.310000000000000504e-04 2.280000000000000126e-04 1.665000000000000030e-03 -4.884999999999999586e-03 -2.329999999999999986e-04 -2.328000000000000208e-03 5.074999999999999650e-03 -1.759999999999999954e-04 -1.146000000000000100e-03 4.109999999999999938e-03 -1.050000000000000044e-04 -4.310000000000000137e-04 8.859999999999999603e-04 -3.200000000000000262e-04 1.975000000000000193e-03 -5.255000000000000122e-03 -8.700000000000000051e-05 -2.559999999999999884e-04 8.080000000000000160e-04 -1.699999999999999987e-05 5.100000000000000366e-04 -5.407000000000000348e-03 -1.540000000000000028e-04 -1.193999999999999966e-03 3.376000000000000095e-03 1.299999999999999920e-05 -7.460000000000000268e-04 3.915000000000000077e-03 -1.129999999999999955e-04 -5.429999999999999714e-04 -8.180000000000000422e-04 1.959999999999999937e-04 7.659999999999999708e-04 -4.811000000000000172e-03 0.000000000000000000e+00 -6.319999999999999663e-04 0.000000000000000000e+00 -2.079999999999999872e-04 2.599999999999999772e-04 -5.433999999999999594e-03 -1.530000000000000056e-04 -9.619999999999999645e-04 3.047999999999999928e-03 -1.779999999999999898e-04 -8.750000000000000182e-04 4.134999999999999787e-03 -6.200000000000000270e-05 -1.689999999999999879e-04 -4.510000000000000120e-04 -1.399999999999999877e-04 4.510000000000000120e-04 -4.789999999999999987e-03 -5.199999999999999680e-05 -5.710000000000000015e-04 -2.599999999999999840e-05 6.600000000000000506e-05 1.939999999999999993e-04 -5.467999999999999770e-03 -3.999999999999999819e-06 -1.268999999999999946e-03 3.364999999999999936e-03 -2.900000000000000017e-05 -9.070000000000000371e-04 4.108999999999999805e-03 6.099999999999999872e-05 -4.960000000000000216e-04 -8.959999999999999866e-04 -1.949999999999999965e-04 7.100000000000000191e-04 -4.778000000000000129e-03 -7.999999999999999638e-06 -1.379999999999999933e-04 5.140000000000000254e-04 -7.100000000000000462e-05 1.531000000000000026e-03 -4.575000000000000074e-03 6.000000000000000152e-06 -3.719999999999999891e-04 5.046000000000000138e-03 -1.420000000000000092e-04 -1.991000000000000148e-03 5.094999999999999703e-03 -3.899999999999999929e-05 4.690000000000000158e-04 -8.080000000000000160e-04 2.849999999999999886e-04 1.090000000000000040e-03 -4.154999999999999839e-03 -9.799999999999999684e-05 -3.869999999999999742e-04 4.119999999999999856e-04 -1.720000000000000066e-04 1.758000000000000014e-03 -4.344999999999999904e-03 -1.900000000000000105e-05 -2.210000000000000050e-04 4.857000000000000206e-03 -2.359999999999999902e-04 -2.602999999999999845e-03 5.863000000000000156e-03 -5.700000000000000314e-05 9.330000000000000186e-04 -1.299999999999999920e-05 -4.500000000000000283e-05 1.062999999999999926e-03 -4.041999999999999586e-03 2.199999999999999943e-05 -3.770000000000000022e-04 4.769999999999999934e-04 1.240000000000000054e-04 1.941999999999999933e-03 -4.304999999999999799e-03 -2.149999999999999947e-04 -2.500000000000000052e-04 5.096999999999999968e-03 7.399999999999999623e-05 -2.583999999999999925e-03 5.947000000000000029e-03 -3.899999999999999929e-05 5.060000000000000478e-04 -9.229999999999999923e-04 -3.849999999999999798e-04 1.115000000000000106e-03 -4.157000000000000105e-03 -9.000000000000000567e-05 8.940000000000000464e-04 -2.239999999999999966e-04 -1.259999999999999998e-04 2.227999999999999946e-03 -5.113999999999999622e-03 9.399999999999999448e-05 -1.476000000000000098e-03 5.722999999999999789e-03 -1.630000000000000047e-04 -4.800000000000000122e-05 4.853999999999999808e-03 5.000000000000000240e-05 -1.910000000000000077e-04 -4.939999999999999730e-04 1.869999999999999917e-04 1.817999999999999955e-03 -5.346000000000000058e-03 1.169999999999999979e-04 5.159999999999999656e-04 -5.289999999999999564e-04 -4.009999999999999893e-04 2.354000000000000190e-03 -5.324999999999999872e-03 -5.099999999999999960e-05 -8.090000000000000403e-04 4.852000000000000410e-03 -1.169999999999999979e-04 -9.399999999999999448e-05 5.033000000000000147e-03 -4.300000000000000165e-05 -6.299999999999999990e-05 -5.069999999999999637e-04 -1.200000000000000030e-05 2.112999999999999861e-03 -5.290000000000000431e-03 -8.399999999999999535e-05 4.820000000000000066e-04 -5.599999999999999509e-04 3.370000000000000057e-04 2.294000000000000032e-03 -5.264999999999999715e-03 -2.799999999999999755e-04 -1.500000000000000031e-03 5.786000000000000344e-03 -6.700000000000000226e-05 -2.079999999999999872e-04 4.956000000000000336e-03 -1.279999999999999942e-04 -2.460000000000000164e-04 -4.920000000000000328e-04 -3.400000000000000244e-04 1.848000000000000033e-03 -5.372000000000000039e-03 -6.000000000000000152e-05 -4.249999999999999763e-04 3.339999999999999870e-04 -9.899999999999999404e-05 1.115000000000000106e-03 -4.308000000000000197e-03 -1.179999999999999951e-04 -2.621000000000000066e-03 5.406000000000000215e-03 -9.000000000000000228e-06 -1.402999999999999950e-03 5.127999999999999746e-03 -8.700000000000000051e-05 -8.450000000000000479e-04 -2.599999999999999840e-05 1.669999999999999935e-04 1.655000000000000004e-03 -4.490000000000000067e-03 -2.099999999999999884e-05 -7.690000000000000438e-04 -4.519999999999999821e-04 -2.790000000000000054e-04 7.590000000000000175e-04 -4.490000000000000067e-03 -1.010000000000000020e-04 -2.465000000000000177e-03 5.191999999999999567e-03 -1.510000000000000112e-04 -1.453999999999999997e-03 5.363999999999999845e-03 -8.100000000000000375e-05 -4.789999999999999879e-04 2.359999999999999902e-04 -4.899999999999999842e-05 1.361000000000000014e-03 -4.774999999999999731e-03 -7.899999999999999579e-05 -8.220000000000000310e-04 -4.420000000000000101e-04 2.660000000000000146e-04 8.199999999999999824e-04 -4.460999999999999688e-03 -5.199999999999999680e-05 -2.544999999999999953e-03 5.390999999999999959e-03 -3.699999999999999811e-05 -1.546000000000000065e-03 5.316000000000000413e-03 4.800000000000000122e-05 -8.210000000000000067e-04 4.600000000000000004e-05 -2.539999999999999940e-04 1.572000000000000047e-03 -4.508999999999999987e-03