-1.716279584174222919e+02 2.427009207874224824e-04 4.146140730118467836e-03 2.427009207874224824e-04 6.359194918764865889e+01 2.128634718365840683e+01 4.146140730118467836e-03 2.128634718365840683e+01 9.490105562183505583e+01
-1.717429784287987786e+02 -1.200156053293804093e-01 -2.437121746240367148e-01 -1.200156053293804093e-01 6.340919539429572893e+01 2.143904651298716146e+01 -2.437121746240367148e-01 2.143904651298716146e+01 9.500278775779844409e+01
-1.721446080025485230e+02 -2.455931067601392348e-01 -4.871007480203569107e-01 -2.455931067601392348e-01 6.292555313439659415e+01 2.156996343467524468e+01 -4.871007480203569107e-01 2.156996343467524468e+01 9.477865345745127001e+01
-1.716594893120479242e+02 -3.676514448394804790e-01 -7.050259498107299683e-01 -3.676514448394804790e-01 6.339538166688758736e+01 2.165683013924040878e+01 -7.050259498107299683e-01 2.165683013924040878e+01 9.560171295507161915e+01
-1.708977117969263873e+02 -4.865344458718529053e-01 -9.026653996386210244e-01 -4.865344458718529053e-01 6.411610227624257163e+01 2.168209126007903009e+01 -9.026653996386210244e-01 2.168209126007903009e+01 9.642635000867709039e+01
