-4.702359924599999772e+02
-4.702359946700000251e+02
-4.702359991000000150e+02
-4.702360058699999854e+02
-4.702360151199999905e+02
-4.702360268499999734e+02
