-1.757969999999939859e-01 -1.329557140360241237e-08 1.000970374034011684e-06 1.757980000000105569e-01 1.329565003049073567e-08 1.999029620446132808e-06 -3.530999999983429772e-03 -2.670474430989744628e-10 3.000019490609703893e-06 3.531000000016549113e-03 2.670534363603385551e-10 2.999980509390296259e-06 1.088000114997451440e-03 -1.552999918158775141e-03 -4.450000044543475641e-04 -1.000226623430685214e-06 3.045000000588613757e-03 6.649999969639409751e-04 -1.085999884932432056e-03 -1.554000082579954419e-03 -4.459999924531828780e-04 -1.000006900725498963e-06 1.100000001810807945e-04 2.569999998956434394e-04 1.109999945092265023e-04 8.800000860572135784e-05 2.109999992993949046e-04 -1.069999945257860753e-04 -8.800000830619696872e-05 -2.139999993214743211e-04 1.090000052362828225e-04 -8.499999197205909099e-05 -2.160000005167597497e-04 -1.130000053284726169e-04 8.599999166654143275e-05 2.130000005378402804e-04 2.000226601351260503e-06 -3.045000000516979218e-03 -6.689999969694608540e-04 -1.090000115073081529e-03 1.553999918007514759e-03 4.450000044643884147e-04 7.068545583374964672e-12 -1.120000002537144062e-04 -2.539999998881258339e-04 1.088999884937951693e-03 1.554000082807843958e-03 4.469999924366233404e-04 -3.500006001936498357e-05 2.250000017285522669e-03 1.995499999794572363e-02 3.599993973166461432e-05 2.253000022651275615e-03 1.995099999755081677e-02 -4.199999726691679321e-03 -2.125000297271984959e-03 2.039800002530600329e-02 4.198000273442996887e-03 -2.126999662132077976e-03 2.039499997895225653e-02 -2.619998284086207368e-04 -7.429999989326049751e-04 2.090600000218836851e-02 1.000038615343082177e-06 9.270000197505056825e-04 1.969699999906852211e-02 2.630001718293082649e-04 -7.459999592247220160e-04 2.090799999929343969e-02 -9.999338726265538689e-07 5.290000191307730939e-04 1.922799999947711128e-02 1.212000211799402205e-03 -1.314999888005982404e-03 2.035299999462345660e-02 -6.499999895866673391e-04 1.324999970858820519e-03 2.004100000226439332e-02 6.510000103487383538e-04 1.326000069255783322e-03 2.004299999508206073e-02 -1.212999788147040015e-03 -1.316000071413352774e-03 2.034900000801010550e-02 1.002362431380995963e-06 -3.270300001999371098e-02 -2.009199996733926005e-02 -2.900200090555798277e-02 1.485499784600788353e-02 3.948100014524853762e-02 -2.219179599198368861e-11 1.781000020359103757e-03 2.038199999822100025e-02 2.900199909420943939e-02 1.485800223286434796e-02 3.947999982507184591e-02 -1.002362204490222897e-06 3.270000001999370798e-02 2.009199996734225765e-02 -2.899899909413932927e-02 -1.485900223263845847e-02 -3.948099982508741085e-02 -9.999777806047279812e-07 -1.781000020429739528e-03 -2.037699999821547883e-02 2.899800090587154391e-02 -1.485899784630840756e-02 -3.947900014522246620e-02 -1.214000211799402254e-03 1.314999887854721890e-03 -2.035299999461241682e-02 1.213999788136000150e-03 1.316000071486985281e-03 -2.035100000801562739e-02 -6.510000099705870675e-04 -1.331000069255783335e-03 -2.004299999507706820e-02 6.499999900294092109e-04 -1.330999970860818199e-03 -2.004300000225840012e-02 2.649998281817299295e-04 7.459999991594958198e-04 -2.090600000220792579e-02 -6.653312400844273103e-11 -5.240000192113978238e-04 -1.923299999947658892e-02 -2.650001719860886097e-04 7.479999590724625662e-04 -2.090899999928439931e-02 -2.000038609823223795e-06 -9.270000198251370643e-04 -1.969599999906300469e-02 3.500005978143449256e-05 -2.247000017287520673e-03 -1.995699999794871976e-02 -4.194000273675406801e-03 2.129999662433600203e-03 -2.039599997897733469e-02 4.193999726400198143e-03 2.129000296820201046e-03 -2.039600002527688222e-02 -3.499994012085561588e-05 -2.248000022577643312e-03 -1.995299999756132772e-02
-1.757010000000105432e-01 -1.328831389549957705e-08 -1.999030155872114500e-06 1.757019999999884508e-01 1.328838553024964104e-08 -2.000969849647740691e-06 -3.523000000011029895e-03 -2.664473954223182219e-10 -1.999980553549139917e-06 3.522999999988950335e-03 2.664433999147420914e-10 -2.000019446450859902e-06 1.088000114818591692e-03 -1.550999918163769795e-03 -4.500000044563453282e-04 -2.263264295131417341e-10 3.041000000663245367e-03 6.639999969624166710e-04 -1.088999885175882245e-03 -1.551000082809841744e-03 -4.489999924396199612e-04 -6.777064263600837082e-12 1.080000002517166665e-04 2.519999998921213413e-04 1.099999945202662311e-04 8.800000853208886505e-05 2.129999993049147620e-04 -1.109999945423456260e-04 -8.800000861171462416e-05 -2.169999992993948878e-04 1.110000054576537257e-04 -8.799999182179742997e-05 -2.170000005248028194e-04 -1.100000054852530164e-04 8.799999189243329638e-05 2.120000005192829704e-04 2.263043500915195218e-10 -3.041000000667240868e-03 -6.679999969624166598e-04 -1.089000114840670951e-03 1.550999918084144035e-03 4.460000044618652295e-04 6.749464986573043403e-12 -1.080000002567110438e-04 -2.569999998921213545e-04 1.088999885159322792e-03 1.551000082806845226e-03 4.459999924396199425e-04 -3.100006004309213589e-05 2.249000017570064458e-03 1.993699999792464261e-02 3.199993995690768105e-05 2.249000022334770449e-03 1.993699999757689301e-02 -4.189999726693327715e-03 -2.126000296529666558e-03 2.038400002525180693e-02 4.191000273306648427e-03 -2.125999662672477600e-03 2.038399997898989596e-02 -2.589998282369285220e-04 -7.459999987157030308e-04 2.089600000217480685e-02 3.876495588241959935e-11 9.240000196608912043e-04 1.968299999907703601e-02 2.600001718387002017e-04 -7.469999594635993176e-04 2.089599999931100044e-02 6.621791554901486554e-11 5.270000191954157809e-04 1.921699999947359266e-02 1.211000211495233706e-03 -1.311999888095596953e-03 2.033899999462597877e-02 -6.489999898041660768e-04 1.326999970922464319e-03 2.002900000225688038e-02 6.500000101958301529e-04 1.327000069166168941e-03 2.002899999508658824e-02 -1.209999788510279220e-03 -1.312000071197449861e-03 2.033800000798954843e-02 2.360138169428479817e-09 -3.267100002004635906e-02 -2.006899996736570546e-02 -2.897800090503738907e-02 1.484599784779404123e-02 3.945200014512505182e-02 -2.235022408071337525e-11 1.782000020344120432e-03 2.036699999822000340e-02 2.897999909496796339e-02 1.484600223117351313e-02 3.945299982520526771e-02 -2.360387139623041007e-09 3.267400002004237219e-02 2.006499996736271080e-02 -2.898099909490889359e-02 -1.484700223125214220e-02 -3.945599982519874815e-02 2.234470422530780925e-11 -1.782000020345119416e-03 -2.036799999822000440e-02 2.898000090501530804e-02 -1.484599784764677882e-02 -3.945600014513608866e-02 -1.211000211522832940e-03 1.311999888090602685e-03 -2.034399999462598030e-02 1.209999788477160096e-03 1.312000071191456608e-03 -2.034400000798955097e-02 -6.500000102013499346e-04 -1.327000069167167708e-03 -2.002999999508658577e-02 6.489999897230160379e-04 -1.325999970923462954e-03 -2.003000000225787364e-02 2.599998281668180707e-04 7.469999987923321878e-04 -2.089500000218132494e-02 -6.631010537287785059e-11 -5.260000191984123830e-04 -1.921999999947459140e-02 -2.610001718331803901e-04 7.469999593889679358e-04 -2.089499999930547955e-02 -3.878151544863627798e-11 -9.240000196638878307e-04 -1.968599999907703554e-02 3.100006000997300535e-05 -2.249000017576057928e-03 -1.994299999792464168e-02 -4.190000273317688075e-03 2.125999662746109672e-03 -2.038599997899541785e-02 4.188999726687807693e-03 2.126000296453037317e-03 -2.038500002524628804e-02 -3.099993998450696495e-05 -2.249000022264134677e-03 -1.994199999758241096e-02
-1.755109999999293902e-01 -1.013273943147668048e-06 -9.990312036457794966e-07 1.755109999999995007e-01 1.327394214879403770e-08 -9.687953553440387812e-10 -3.519000000086660272e-03 9.997338551256052723e-07 -1.999980576627438561e-06 3.519999999913319896e-03 1.000266216509138833e-06 -2.000019430890169670e-06 1.089000114667331093e-03 -1.548999918088139489e-03 -4.500000044638629692e-04 -2.261105784510139145e-10 3.038000000661247868e-03 6.619999969654133572e-04 -1.088999885257032393e-03 -1.550000082810840596e-03 -4.499999924406188068e-04 -6.544653635256344549e-12 1.050000002527155639e-04 2.529999998951179920e-04 1.129999945092264967e-04 8.800000875698187237e-05 2.109999992883552057e-04 -1.129999946069361788e-04 -8.700000876097740412e-05 -2.149999992893540700e-04 1.130000053875433123e-04 -8.699999166953804278e-05 -2.160000005368413966e-04 -1.130000054907728439e-04 8.799999166454364912e-05 2.110000005358425351e-04 2.260829791739861233e-10 -3.038000000666242137e-03 -6.669999969654132619e-04 -1.089000114624819960e-03 1.547999918082146320e-03 4.440000044648618614e-04 6.581644905063745472e-12 -1.060000002597076758e-04 -2.599999998941190699e-04 1.088999885375173783e-03 1.548000082804847294e-03 4.439999924426165745e-04 -3.200005995806987964e-05 2.247000017482447213e-03 1.992499999793215931e-02 3.299994011756018897e-05 2.246000022398414453e-03 1.992499999757436566e-02 -4.184999726905306791e-03 -2.124000296162502962e-03 2.037300002522220849e-02 4.186000273100188782e-03 -2.123999663060617375e-03 2.037399997901549742e-02 -2.599998283843168328e-04 -7.449999988043186448e-04 2.088300000217932495e-02 3.892008853508627039e-11 9.210000196479058588e-04 1.966999999908003449e-02 2.610001716156816281e-04 -7.449999594009543927e-04 2.088299999930347955e-02 6.624386710801114899e-11 5.260000191864258774e-04 1.920799999947458980e-02 1.209000211364404716e-03 -1.310999888256846307e-03 2.032899999463602322e-02 -6.499999897191439426e-04 1.324999970834847508e-03 2.001700000226439360e-02 6.500000102052220542e-04 1.326000069154182302e-03 2.001699999508758238e-02 -1.207999788635588439e-03 -1.311000071055179201e-03 2.032900000797751086e-02 2.356654728738064324e-09 -3.262100001999242160e-02 -2.001499996741565313e-02 -2.893600090379360584e-02 1.482699785093555267e-02 3.941700014491219400e-02 -2.201623163572629689e-11 1.777000020336129416e-03 2.035899999822499487e-02 2.893699909620622845e-02 1.482700222788545241e-02 3.941699982546160302e-02 -2.356536587355205508e-09 3.261900001998643134e-02 2.000899996741764553e-02 -2.893599909630393749e-02 -1.482600222781381948e-02 -3.942099982546811571e-02 2.214541272939668448e-11 -1.779000020340124966e-03 -2.036299999822299700e-02 2.893600090369589581e-02 -1.482599785093954847e-02 -3.942100014491319027e-02 -1.210000211386484193e-03 1.310999888177220548e-03 -2.033299999463050386e-02 1.208999788613508795e-03 1.311000071126813956e-03 -2.033300000798303128e-02 -6.500000102974119818e-04 -1.325000069157178904e-03 -2.001999999508858111e-02 6.489999897025842479e-04 -1.324999970913474283e-03 -2.002000000225887325e-02 2.599998283622374350e-04 7.449999988003231429e-04 -2.088700000217932548e-02 -6.626042667422782116e-11 -5.260000191894225038e-04 -1.921099999947458933e-02 -2.610001716377610258e-04 7.449999593969588909e-04 -2.088699999930348009e-02 -3.894216795670850856e-11 -9.210000196519013606e-04 -1.967399999908003502e-02 3.300005991943089008e-05 -2.247000017413809409e-03 -1.993199999793767926e-02 -4.186000273100188782e-03 2.123999663060617375e-03 -2.037399997901549742e-02 4.184999726824156427e-03 2.125000296161504328e-03 -2.037400002522320869e-02 -3.399994015067932349e-05 -2.246000022480037963e-03 -1.993099999756884830e-02
-1.752289999999459280e-01 -1.013252618411644001e-06 -3.999032760245025028e-06 1.752199999997891555e-01 3.013251936740442475e-06 2.999032807925971442e-06 -3.512000000092180101e-03 9.997343835385319378e-07 -2.999980615266426757e-06 3.511999999907799812e-03 1.000265610468201015e-06 -3.000019386731326012e-06 1.084000114294699684e-03 -1.543999918465291995e-03 -4.490000044412580885e-04 -2.255756467920841842e-10 3.031000000662246573e-03 6.629999969724054013e-04 -1.083999885786444180e-03 -1.543000082432689464e-03 -4.499999924752102229e-04 -6.642363314524890758e-12 1.060000002487200321e-04 2.489999998941190736e-04 1.099999945793369129e-04 8.700000852909224147e-05 2.099999993059136459e-04 -1.099999945478655054e-04 -8.800000853708324236e-05 -2.179999993049147751e-04 1.100000053765036218e-04 -8.699999189842656550e-05 -2.180000005202818562e-04 -1.100000054206624715e-04 8.699999189043554826e-05 2.100000005202818515e-04 -9.997744574723372620e-07 -3.031000000743869650e-03 -6.689999969668855486e-04 -1.085000114408969088e-03 1.544999918382669634e-03 4.420000044457790414e-04 -9.999933852359594439e-07 -1.060000003293446803e-04 -2.539999998885992508e-04 1.085999885596544701e-03 1.545000082576957574e-03 4.429999924621727926e-04 -3.500005965554884218e-05 2.243000017255556994e-03 1.992499999795271232e-02 3.399994034445095797e-05 2.243000022474044529e-03 1.992499999757184337e-02 -4.175999727548987753e-03 -2.116000295488822906e-03 2.036600002516453928e-02 4.178000272537658530e-03 -2.116999663671652841e-03 2.036799997905266654e-02 -2.619998284174360052e-04 -7.449999989615724121e-04 2.087700000219036567e-02 3.883893842203440443e-11 9.220000196469068992e-04 1.966899999907903429e-02 2.620001715880823645e-04 -7.449999593303185128e-04 2.087799999929796160e-02 1.000066384087909519e-06 5.240000192600584436e-04 1.920599999947106978e-02 1.206000211406915885e-03 -1.311999888489730247e-03 2.032299999465357956e-02 -6.499999894331824754e-04 1.320999970831850676e-03 2.001400000226839088e-02 6.500000105723336688e-04 1.321000069152184755e-03 2.001499999509257985e-02 -1.204999788663187492e-03 -1.311000070833282915e-03 2.032400000796094966e-02 2.352957084703552790e-09 -3.256700001992249988e-02 -1.994499996746959200e-02 -2.888500090191883571e-02 1.479899785474874524e-02 3.937300014465865139e-02 9.999778750189712674e-07 1.778000020405766553e-03 2.035299999821847672e-02 2.888799909794629792e-02 1.480100222413861799e-02 3.937599982575804708e-02 9.976471941758087577e-07 3.256500001999813182e-02 1.994499996746606704e-02 -2.888599909822121836e-02 -1.479700222398236051e-02 -3.937099982577308560e-02 2.195716094429664648e-11 -1.776000020333132765e-03 -2.035599999822599454e-02 2.888500090184320523e-02 -1.479799785474874597e-02 -3.937300014465965059e-02 -1.206000211104394856e-03 1.307999888489730150e-03 -2.032299999464958623e-02 1.205999788819968029e-03 1.309000070909911891e-03 -2.032300000796447709e-02 -6.490000105077430590e-04 -1.322000069078552381e-03 -2.001699999509709907e-02 6.479999894922532306e-04 -1.321999970986108058e-03 -2.001700000225635143e-02 2.599998285797361971e-04 7.429999988123095998e-04 -2.087500000217732896e-02 -6.638408791249264274e-11 -5.240000191844281863e-04 -1.920599999947658967e-02 -2.600001714958924967e-04 7.439999594845756294e-04 -2.087499999930800265e-02 -1.000038763308161452e-06 -9.230000197225371808e-04 -1.966899999907251520e-02 3.300005952084790191e-05 -2.241000017403820509e-03 -1.992199999794367141e-02 -4.177000272672358808e-03 2.118999663750279448e-03 -2.036499997906018530e-02 4.177999727251986879e-03 2.120000295641082284e-03 -2.036500002517957486e-02 -3.499994040904150000e-05 -2.242000022547677336e-03 -1.992299999756732415e-02
-1.747870000007243352e-01 8.986780806166696210e-06 -7.999035210009911576e-06 1.747969999991935142e-01 1.001321993315491841e-05 -9.000964864167296109e-06 -3.501999999866936639e-03 -3.000264874143156773e-06 -1.699998066646947546e-05 3.486000000394701148e-03 -4.999736349925219381e-06 2.999980762778175480e-06 1.090000114073328731e-03 -1.540999918010511720e-03 -4.480000044773738144e-04 -1.000224970604728077e-06 3.023000000586616338e-03 6.629999969859161867e-04 -1.074999886218146487e-03 -1.537000081748021501e-03 -4.459999925308822267e-04 -7.398665890988003413e-12 1.160000002487200041e-04 2.489999998841303189e-04 1.069999945738170583e-04 8.700000830120258066e-05 2.089999993224732106e-04 -1.149999953356394715e-04 -7.700000890724355577e-05 -2.099999992883031397e-04 1.180000047510298191e-04 -7.799999128339576439e-05 -2.080000005734305589e-04 -1.050000059335147245e-04 9.399999227158345493e-05 2.130000004856904270e-04 -3.999775082946092862e-06 -3.022000000960772207e-03 -6.589999969593158397e-04 -1.086000113680265665e-03 1.534999918302044864e-03 4.370000044612876730e-04 9.000006404432806049e-06 -1.029999995700454896e-04 -2.509999999467943800e-04 1.079999886397006248e-03 1.535000082131167008e-03 4.509999925052807029e-04 -3.600005826273279432e-05 2.224000017171935163e-03 1.991699999797721249e-02 3.799994145130553821e-05 2.228000022771571033e-03 1.991999999756475029e-02 -4.173999726973192000e-03 -2.125000295356541027e-03 2.034700002516249065e-02 4.173000272340590677e-03 -2.115999664071779255e-03 2.034599997907926561e-02 -2.689998288082746871e-04 -7.409999995069662315e-04 2.086100000222500944e-02 -3.999960926426518950e-06 9.170000193184152035e-04 1.964299999910611161e-02 2.670001716769767101e-04 -7.479999589771390775e-04 2.085299999927335904e-02 8.000065605705890498e-06 5.340000197854746604e-04 1.920199999942244148e-02 1.207000211362757114e-03 -1.311999888422090994e-03 2.031499999464805861e-02 -6.629999901210222252e-04 1.328999969833674502e-03 1.999900000233215819e-02 6.560000098088635814e-04 1.330000069590982952e-03 1.999999999505047005e-02 -1.200999789015387217e-03 -1.307000070539751559e-03 2.031500000793487817e-02 7.002345794783943983e-06 -3.246500001929320672e-02 -1.984499996761011562e-02 -2.881100089938711320e-02 1.476099786028345524e-02 3.931100014428814265e-02 -9.000022211650968973e-06 1.779000019647466145e-03 2.035099999827267789e-02 2.881799910056856082e-02 1.476100221877157948e-02 3.930299982618438992e-02 -2.002346794536873620e-06 3.247800001966836408e-02 1.984199996756952702e-02 -2.880299910109410111e-02 -1.475500221765011291e-02 -3.931599982627317913e-02 -9.999779340896626277e-07 -1.777000020402769685e-03 -2.034999999821947639e-02 2.881200089912710344e-02 -1.475799786021381871e-02 -3.931700014429665574e-02 -1.209000210811265802e-03 1.304999888274826136e-03 -2.031099999463002737e-02 1.209999789356547154e-03 1.303000071227416014e-03 -2.030800000798056032e-02 -6.490000106148447780e-04 -1.320000069070561329e-03 -2.000899999509909641e-02 6.489999887911490411e-04 -1.311999970900489020e-03 -2.000700000227186026e-02 2.509998285372251159e-04 7.439999981376305615e-04 -2.086900000212864661e-02 -3.000066760591474209e-06 -5.180000193973346642e-04 -1.919199999946602161e-02 -2.530001721749171968e-04 7.539999600279717129e-04 -2.086099999935663030e-02 9.999611610615748400e-07 -9.220000195712766420e-04 -1.966899999908455418e-02 3.300005957991859729e-05 -2.242000017406817376e-03 -1.992499999794267174e-02 -4.172000272087749394e-03 2.111999664138419861e-03 -2.035499997908079076e-02 4.175999728139117260e-03 2.109000295499811016e-03 -2.035500002515754775e-02 -3.499994048467175726e-05 -2.241000022547677203e-03 -1.992299999756832335e-02
-1.742389999994165273e-01 -8.013177744456557899e-06 -3.999038217909816080e-06 1.742759999984261621e-01 2.001318052779290613e-05 -1.100096199831135470e-05 -3.490999999328709899e-03 -8.000264013242877471e-06 1.200001927780649716e-05 3.482000001955336786e-03 -2.599973665744057292e-05 -2.000019194165996725e-06 1.045000115303844519e-03 -1.557999921423861706e-03 -4.580000042119994211e-04 -2.265566157221437271e-10 3.042000000635276986e-03 6.359999969614177654e-04 -1.084999890232069822e-03 -1.484000082505323179e-03 -4.469999925286241289e-04 9.999992882352390467e-06 1.090000009600731600e-04 2.039999998359239160e-04 8.099999607925471065e-05 6.600000631983280505e-05 1.939999994869658583e-04 -9.599999630227330728e-05 -6.400000746727206417e-05 -2.069999994061657634e-04 1.180000066550503937e-04 -1.049999913083676160e-04 -2.330000005464609057e-04 -1.370000041112208542e-04 7.099998986639843228e-05 2.280000006852999739e-04 4.000227010973957215e-06 -3.051000000373709636e-03 -6.769999969745072507e-04 -1.118000111841412287e-03 1.511999915899856807e-03 4.550000046608972115e-04 3.000000677154432118e-05 -1.079999979838078104e-04 -2.530000000577170387e-04 1.076999887599346161e-03 1.521000081930247525e-03 4.769999925358245027e-04 -3.900005948550433086e-05 2.239000016929062857e-03 1.990099999797878896e-02 4.399994000329090739e-05 2.247000023223354528e-03 1.991799999751265107e-02 -4.146999729817317862e-03 -2.089000293336499767e-03 2.032500002497749161e-02 4.163000271366790184e-03 -2.103999664840068475e-03 2.033399997912247945e-02 -2.669998280144041895e-04 -7.549999994036518626e-04 2.081300000222795557e-02 2.100003971890217731e-05 9.100000212301480665e-04 1.966399999897510548e-02 2.370001719110351721e-04 -7.499999612310637121e-04 2.086799999944095180e-02 8.000067330866667738e-06 5.090000197555083310e-04 1.917199999944741579e-02 1.191000211872313965e-03 -1.320999889663140251e-03 2.028399999474536641e-02 -6.389999891930276321e-04 1.315999971638811715e-03 1.998900000221266737e-02 6.460000110393793529e-04 1.313000068824691753e-03 1.998999999512264883e-02 -1.208999787609307082e-03 -1.328000071177756368e-03 2.028200000800001526e-02 5.002336411029760922e-06 -3.233100001930861583e-02 -1.970899996773292639e-02 -2.870600089589040588e-02 1.470899786814571994e-02 3.923200014376049954e-02 -2.000022039958769216e-06 1.776000020166889227e-03 2.034099999823703667e-02 2.869199910302852249e-02 1.472300220916725189e-02 3.922799982691784620e-02 1.899766115611450058e-05 3.236200002110776325e-02 1.969299996756948209e-02 -2.873699910444671088e-02 -1.470600221259458877e-02 -3.925199982668643728e-02 1.000023148461078217e-06 -1.790000020233529403e-03 -2.033199999821752937e-02 2.870400089555312159e-02 -1.470599786831695843e-02 -3.925200014375245655e-02 -1.173000210621366265e-03 1.302999891004507586e-03 -2.030399999482674495e-02 1.197999788742690024e-03 1.309000070290885576e-03 -2.033700000792031809e-02 -6.840000116996199347e-04 -1.305000071708630307e-03 -1.999999999492088620e-02 6.589999887784615167e-04 -1.312999970160168371e-03 -2.002300000232605862e-02 2.689998278416409045e-04 7.539999995099628486e-04 -2.085800000223799605e-02 1.499993368989458355e-05 -5.260000180639585240e-04 -1.921999999955738975e-02 -2.720001709924322881e-04 7.379999585860024924e-04 -2.086599999923577017e-02 -5.000038387381280873e-06 -9.260000199980885369e-04 -1.964199999904744226e-02 5.700005767425023932e-05 -2.216000015580703482e-03 -1.991399999810112426e-02 -4.150000272086101089e-03 2.112999665816269693e-03 -2.034099997920322742e-02 4.165999729552365659e-03 2.089000294725528416e-03 -2.037300002508236896e-02 -5.699994152364030303e-05 -2.225000024180577660e-03 -1.989199999746286973e-02
