-3.986994918308232426e-06 -1.719730000005337545e-01 -2.319998281981362775e-04 4.000007668562092864e-06 -4.599999893933127596e-05 7.590000000238689452e-04 -5.986994982898775044e-06 -1.719720000006830229e-01 -2.299998281880954597e-04 6.000007668562088115e-06 -4.599999878807076143e-05 7.590000000128291650e-04 -1.625000190246919489e-03 2.495999876834123585e-03 -2.669999935234304870e-04 1.623999809590770610e-03 2.498000122554833256e-03 -2.690000114594387373e-04 -1.624000190246919573e-03 2.495999876909754060e-03 -2.669999935289503771e-04 1.624999809055838835e-03 2.505000122629464591e-03 -2.700000114719507257e-04 -2.999981765528395561e-06 -2.229999999791686539e-04 2.480000002393090174e-04 2.000039880708141298e-06 -5.059999995570660554e-04 2.920000004943917957e-04 -2.999982202750375577e-06 -2.169999999761720443e-04 2.510000002333157292e-04 3.000040091039345873e-06 -5.089999994844322806e-04 2.890000004918685133e-04 -1.515000181575392162e-03 2.381999885162442571e-03 -2.579999940167426904e-04 1.513999818186668837e-03 2.385000114244494908e-03 -2.600000107393815835e-04 -1.513000181261831304e-03 2.377999885315700522e-03 -2.559999940237869202e-04 1.514999818192188643e-03 2.385000114321124149e-03 -2.590000107449014492e-04 -3.003181338262587584e-06 4.186999999711297354e-02 -2.663000041806398623e-03 2.999908800537051514e-06 2.663000020169460288e-03 1.996499999732343281e-02 -3.181332742740651635e-09 4.186999999734086764e-02 -2.662000041822957727e-03 9.999087839774905703e-07 2.663000020015203039e-03 1.996199999733447306e-02 -6.990000491081740930e-04 2.104999967057043578e-03 1.994500000175574578e-02 6.969999506389794406e-04 2.109000072645873022e-03 1.995399999404602956e-02 -6.950000491341256758e-04 2.105999967368554077e-03 1.995400000173266561e-02 6.969999510392100705e-04 2.104000072649868294e-03 1.995799999405102609e-02 9.999909263463410456e-07 1.622000020632511936e-03 2.057999999837430496e-02 9.996847221716399956e-07 5.658000020458695337e-03 2.040599999434283829e-02 -2.000009295024567195e-06 1.625000020406619896e-03 2.058099999838786456e-02 -3.152833482124047976e-10 5.658000020382066529e-03 2.040499999434835718e-02 -1.493000080885287587e-02 1.297399890203314310e-02 3.122800006945201934e-02 1.493399919101233604e-02 1.297600116065815434e-02 3.123099990460505640e-02 -1.492800080889151310e-02 1.297399890217741138e-02 3.122100006944097950e-02 1.492499919079096765e-02 1.297900115997848054e-02 3.123199990465173881e-02 1.549599895179086355e-02 1.321600116315733812e-02 -8.819000098736831661e-03 -1.549600104818309176e-02 1.321499881921540422e-02 -8.827999927664472585e-03 1.549299895163408318e-02 1.321800116292944950e-02 -8.820000098722269657e-03 -1.549300104811298165e-02 1.321399881944129544e-02 -8.828999927680032320e-03 1.999457279330771675e-06 5.719999980224648763e-03 -1.994900000572461321e-02 -2.325688092755175853e-10 1.630999980236217013e-03 -1.978600000162917052e-02 -5.431264197876499582e-10 5.724999980068394209e-03 -1.995400000571856750e-02 -3.000232725589637533e-06 1.632999980008327306e-03 -1.978700000161460332e-02 6.889997295551768307e-04 2.084000031691198625e-03 -2.044100000588483859e-02 -6.900002703156382210e-04 2.081999927393078306e-03 -2.044499999827096084e-02 6.919997296252872708e-04 2.083000031917091148e-03 -2.044200000590039659e-02 -6.940002702344880625e-04 2.080999927091555912e-03 -2.044399999824788108e-02 -3.149507563277444479e-10 2.673999979602926375e-03 -2.042000000267099602e-02 -4.003285077683602425e-06 4.037299995777649669e-02 -4.196800004030555586e-02 2.999685351764694317e-06 2.669999979829817266e-03 -2.042000000268355889e-02 9.967149924267842068e-07 4.037199995815365233e-02 -4.196900004033216058e-02
1.299797244753625278e-08 -1.718790000002312357e-01 -2.319998283141100771e-04 7.441671331610415575e-12 -4.299999924185232019e-05 7.590000000429516624e-04 1.012997972447533173e-06 -1.718790000001556018e-01 -2.319998283196299401e-04 -9.999925528088099925e-07 -4.299999931648369522e-05 7.600000000484715768e-04 -1.621000190182329131e-03 2.494999877134646948e-03 -2.689999935445110579e-04 1.620999809893291675e-03 2.494000122327942603e-03 -2.690000114388836736e-04 -1.621000190106698874e-03 2.493999877134647249e-03 -2.689999935435121825e-04 1.620999809893291675e-03 2.494000122327942603e-03 -2.690000114388836736e-04 1.000017856320304379e-06 -2.179999996766476659e-04 2.480000002122352424e-04 -9.999601248117048328e-07 -5.059999997849557027e-04 2.910000005109513875e-04 1.000017850800449007e-06 -2.179999996776465414e-04 2.470000002122352181e-04 3.987518829205110459e-11 -5.059999997093254454e-04 2.910000005054314974e-04 -1.511000181348501293e-03 2.378999885464963635e-03 -2.579999940358254618e-04 1.510999818651489980e-03 2.379000114019602392e-03 -2.580000107168287744e-04 -1.511000181424131551e-03 2.379999885464963768e-03 -2.579999940368243915e-04 1.510999818651489980e-03 2.379000114019602392e-03 -2.580000107168287744e-04 -3.178198783044719475e-09 4.182899999734686347e-02 -2.656000041782004013e-03 -9.099629930686302900e-11 2.659000019924589661e-03 1.994699999734398863e-02 -3.178193263189313767e-09 4.182899999734786267e-02 -2.655000041782003880e-03 -9.107192956450935481e-11 2.660000019924589794e-03 1.994699999734298942e-02 -6.950000490822226410e-04 2.103999967350574703e-03 1.993600000173466336e-02 6.949999509768438940e-04 2.103000072473635868e-03 1.993299999406306089e-02 -6.940000491688926541e-04 2.104999967424206909e-03 1.993400000172814573e-02 6.949999509122534169e-04 2.104000072475633969e-03 1.993499999406206716e-02 -9.254161166271490911e-12 1.623000020537903069e-03 2.056099999837882400e-02 9.996851798253233427e-07 5.651000020445710002e-03 2.039299999434983010e-02 -9.178530908625190954e-12 1.622000020537902936e-03 2.056099999837982320e-02 -3.147445444161009832e-10 5.650000020370079395e-03 2.039299999435634919e-02 -1.491700080836926880e-02 1.296599890299436272e-02 3.120600006938825319e-02 1.491799919147938393e-02 1.296800115942309956e-02 3.120599990470136753e-02 -1.491800080835823002e-02 1.296599890292072892e-02 3.120800006939377161e-02 1.491699919147938293e-02 1.296800115934746908e-02 3.120599990470688742e-02 1.547799895265979109e-02 1.320400116178900400e-02 -8.826000098625488496e-03 -1.547800104718334048e-02 1.320199882057974429e-02 -8.824999927750843201e-03 1.547799895274093972e-02 1.320300116179000047e-02 -8.825000098624488296e-03 -1.547900104717782159e-02 1.320199882050511475e-02 -8.823999927745324046e-03 -5.424440997508016087e-10 5.716999980082378488e-03 -1.994000000571057724e-02 -2.322646405269008389e-10 1.627999980250201305e-03 -1.977200000162617280e-02 -1.000542438579892296e-06 5.716999980007746347e-03 -1.993900000570505635e-02 -2.322591206714952600e-10 1.627999980251200289e-03 -1.977100000162617180e-02 6.909997299184162658e-04 2.080000031853446781e-03 -2.043000000589188445e-02 -6.920002701572100946e-04 2.080999927256800899e-03 -2.042999999825892074e-02 6.909997299184162658e-04 2.080000031853446781e-03 -2.043000000589188445e-02 -6.920002701572100946e-04 2.080999927256800899e-03 -2.042999999825892074e-02 -3.145599176106702436e-10 2.669999979618908285e-03 -2.040400000266699709e-02 -3.282340659192871593e-09 4.033899995810898143e-02 -4.193800004029368117e-02 -3.145599176106702436e-10 2.669999979618908285e-03 -2.040400000266699709e-02 -3.282340659192871593e-09 4.033899995810898143e-02 -4.193800004029368117e-02
1.298466152219050109e-08 -1.717030000002312262e-01 -2.319998284899123481e-04 -1.999992558328662143e-06 -4.299999939311283472e-05 7.590000000539914426e-04 1.298459141178826068e-08 -1.717020000002302260e-01 -2.309998284909112263e-04 -2.999992628439062085e-06 -4.199999946774420577e-05 7.600000000585123731e-04 -1.620000190182328999e-03 2.494999877210277422e-03 -2.689999935500308938e-04 1.618999810125702288e-03 2.491000122177680891e-03 -2.680000114248473511e-04 -1.619000190106698826e-03 2.493999877285907763e-03 -2.689999935545519085e-04 1.620999809828701198e-03 2.495000122329939837e-03 -2.670000114398825546e-04 1.000017780690046903e-06 -2.169999996766476416e-04 2.480000002112363669e-04 -2.999960346182616931e-06 -5.029999999352172688e-04 2.920000005189944572e-04 3.000017705059783829e-06 -2.159999995253871299e-04 2.480000001991977654e-04 -9.999602004419625215e-07 -5.049999997849556783e-04 2.910000005099525121e-04 -1.510000181499761892e-03 2.380999885540593941e-03 -2.579999940433431028e-04 1.509999818727120321e-03 2.378000113943971785e-03 -2.580000107103100088e-04 -1.510000181505281782e-03 2.380999885539594740e-03 -2.589999940433431271e-04 1.510999818662529760e-03 2.379000114021599926e-03 -2.560000107168287800e-04 9.968261800276211353e-07 4.177299999744846226e-02 -2.630000041731586895e-03 -1.000090926188901769e-06 2.658000019847960721e-03 1.994599999735050325e-02 9.968263312881363010e-07 4.177099999744846720e-02 -2.630000041729588928e-03 -9.101285887307970117e-11 2.659000019921592926e-03 1.994399999734398909e-02 -6.940000489475217724e-04 2.101999967423208177e-03 1.993300000173114234e-02 6.939999510894655872e-04 2.101000072391013759e-03 1.992599999407057912e-02 -6.940000489530415541e-04 2.101999967422209410e-03 1.993200000173114134e-02 6.949999510524741513e-04 2.102000072473636169e-03 1.993299999406406009e-02 9.999909285707603147e-07 1.620000020605542141e-03 2.055299999837629718e-02 -1.000314469622659479e-06 5.646000020289454989e-03 2.038799999436586435e-02 9.999909451303266430e-07 1.620000020608538876e-03 2.055599999837630018e-02 -3.144641028071379957e-10 5.646000020366084664e-03 2.038899999436034546e-02 -1.490100080678268164e-02 1.294399890419046205e-02 3.119200006932191030e-02 1.489699919331329350e-02 1.294200115781089094e-02 3.118199990484325432e-02 -1.490000080679372216e-02 1.294399890426409586e-02 3.119000006931638841e-02 1.489799919316203182e-02 1.294400115788651995e-02 3.118199990483573603e-02 1.545699895445835741e-02 1.318000116019777020e-02 -8.829000098485598191e-03 -1.545700104568729395e-02 1.318199882216498399e-02 -8.827999927846785083e-03 1.545399895454502640e-02 1.317900115997287791e-02 -8.827000098468039055e-03 -1.545700104568729395e-02 1.318199882216498399e-02 -8.827999927846785083e-03 -2.000541913040223103e-06 5.710999979945101217e-03 -1.992600000569354213e-02 -2.321062124381711135e-10 1.626999980265184413e-03 -1.975700000162517248e-02 -5.419295997954626216e-10 5.710999980093365430e-03 -1.992900000570458144e-02 9.997678606684263403e-07 1.626999980334821417e-03 -1.976300000163069143e-02 6.909997302706159805e-04 2.076000031862436888e-03 -2.042100000588788905e-02 -6.910002697884507937e-04 2.076999927344417348e-03 -2.041799999826044570e-02 6.919997301027959284e-04 2.078000031935070893e-03 -2.042400000589540687e-02 -6.920002697994905982e-04 2.076999927266789774e-03 -2.041999999825492781e-02 -1.000314434608651227e-06 2.668999979552267882e-03 -2.039500000266048288e-02 9.967215418588018603e-07 4.028999995821658242e-02 -4.190600004025025332e-02 -1.000314434608651227e-06 2.668999979552267882e-03 -2.039500000266048288e-02 -3.278220210711474363e-09 4.028699995814295082e-02 -4.190400004024173036e-02
-1.987036271499605188e-06 -1.714260000003794970e-01 -2.289998287555614315e-04 1.000007295930668822e-06 -4.099999916522317951e-05 7.600000000354341541e-04 -9.870365370293690814e-07 -1.714230000003108545e-01 -2.359998287640779012e-04 1.000007220300411133e-06 -3.999999916522318908e-05 7.600000000344352786e-04 -1.614000189652917486e-03 2.487999877664059337e-03 -2.689999935761578894e-04 1.612999810363633128e-03 2.488000121725897351e-03 -2.660000113887315523e-04 -1.612000189403947322e-03 2.484999877819314956e-03 -2.649999935842010002e-04 1.613999810288002787e-03 2.489000121801527524e-03 -2.660000113952503179e-04 1.771057964758734967e-11 -2.159999997512790262e-04 2.490000002157572974e-04 -2.999960816523729179e-06 -4.969999999382139662e-04 2.890000005130011315e-04 1.761838982372436462e-11 -2.149999997542756554e-04 2.460000002147584575e-04 1.000039032215744251e-06 -4.949999996356928885e-04 2.890000004889239828e-04 -1.504000180732419393e-03 2.370999885996372993e-03 -2.559999940664734776e-04 1.502999819110791436e-03 2.373000113415559172e-03 -2.570000106666767018e-04 -1.505000180953790408e-03 2.373999885921741250e-03 -2.549999940639502980e-04 1.504999818948491190e-03 2.375000113564821550e-03 -2.590000106797141189e-04 -1.003167705537915726e-06 4.169499999733616152e-02 -2.591000041642634640e-03 -9.046301536596480648e-11 2.651000019911604194e-03 1.993399999735197964e-02 1.996832661573652520e-06 4.168999999756105301e-02 -2.593000041654199873e-03 -9.083012694338525180e-11 2.656000019913601958e-03 1.993599999734698217e-02 -6.930000488569796994e-04 2.099999967487850647e-03 1.992200000172761679e-02 6.889999512777174404e-04 2.098000072005870489e-03 1.991899999410117611e-02 -6.900000488034288212e-04 2.098999967710746001e-03 1.991800000171205925e-02 6.949999511540559801e-04 2.100000072464646133e-03 1.992399999406605990e-02 -9.039957822175171080e-12 1.619000020521920965e-03 2.054499999838281868e-02 -3.000313628297827143e-06 5.634000020126208978e-03 2.037599999438888948e-02 -9.121107935227061276e-12 1.620000020520922113e-03 2.054399999838181848e-02 3.999686220441636622e-06 5.636000020655620828e-03 2.037599999434825185e-02 -1.487100080524742136e-02 1.292099890642241060e-02 3.115500006917928597e-02 1.486999919460123276e-02 1.292300115574190368e-02 3.115499990501126651e-02 -1.487200080554442090e-02 1.292499890634777986e-02 3.115600006918081352e-02 1.487299919453664333e-02 1.292400115597079277e-02 3.115699990499370964e-02 1.542599895608745553e-02 1.315700115783325491e-02 -8.849000098291507840e-03 -1.542900104404163614e-02 1.315899882426565040e-02 -8.844999927978365248e-03 1.543099895564471226e-02 1.316300115821340475e-02 -8.847000098325102230e-03 -1.543000104405267518e-02 1.315899882418802500e-02 -8.846999927972845623e-03 -3.000540902247594338e-06 5.697999979874465888e-03 -1.992100000567504151e-02 -2.316949420175062176e-10 1.621999980271177652e-03 -1.975100000162017741e-02 4.999459016602270640e-06 5.698999980478509746e-03 -1.992200000572019389e-02 -2.000232041621885241e-06 1.625999980111926231e-03 -1.975900000161313202e-02 6.859997304329161537e-04 2.074000031486283521e-03 -2.041900000585828920e-02 -6.920002696095910698e-04 2.074999927273781745e-03 -2.041299999825292935e-02 6.919997303848852760e-04 2.075000031945059466e-03 -2.041400000589240968e-02 -6.870002695615600331e-04 2.073999927646938413e-03 -2.041799999827952766e-02 -2.000313888637278491e-06 2.661999979479634081e-03 -2.039200000264796905e-02 -2.003272417689271523e-06 4.021399995804262467e-02 -4.185300004015778119e-02 9.996856851804434200e-07 2.667999979711519268e-03 -2.038700000267052240e-02 9.967276579409769246e-07 4.021299995826951856e-02 -4.185300004017333819e-02
-1.987067879427445913e-06 -1.710080000003784961e-01 -2.279998291730918108e-04 2.000006598698780921e-06 -3.199999909258958059e-05 7.570000000209243119e-04 -1.987068139437351212e-06 -1.710050000003844883e-01 -2.339998291760884204e-04 6.663289333525067976e-12 -3.299999924584785002e-05 7.550000000329629190e-04 -1.602000189036835573e-03 2.479999878573619764e-03 -2.669999936344051388e-04 1.607999810509373739e-03 2.486000121346746815e-03 -2.670000113591345378e-04 -1.611000189188096197e-03 2.481999877892947497e-03 -2.669999935867242041e-04 1.605999810817414610e-03 2.482000121196485404e-03 -2.660000113440993399e-04 2.000017408058611245e-06 -2.119999996000185229e-04 2.490000002007220696e-04 1.000039043255454995e-06 -4.949999996336951376e-04 2.910000004889240315e-04 -9.999824572404308883e-07 -2.139999998299059155e-04 2.460000002192794179e-04 -9.999607999641684473e-07 -4.969999997839568253e-04 2.920000005019614785e-04 -1.499000180424378461e-03 2.366999886375523166e-03 -2.549999940900772935e-04 1.500999819435391760e-03 2.369000113268294062e-03 -2.530000106516414851e-04 -1.498000180332188834e-03 2.365999886454150242e-03 -2.519999940945982352e-04 1.495999819499982441e-03 2.368000112888144892e-03 -2.550000106230433162e-04 -1.003159239397898210e-06 4.158699999739009362e-02 -2.537000041534756296e-03 9.999092935342917481e-07 2.654000019984238332e-03 1.993099999734346262e-02 -3.158942396725871682e-09 4.158299999746473130e-02 -2.538000041536280383e-03 9.999097307562715520e-07 2.648000019981241668e-03 1.992799999734945482e-02 -6.880000480857653223e-04 2.088999967855014687e-03 1.991100000171100795e-02 6.959999515581588624e-04 2.094000072531286907e-03 1.991499999406653315e-02 -6.960000482960964014e-04 2.091999967252968894e-03 1.991400000175217247e-02 6.889999517574505556e-04 2.091000071996880223e-03 1.990999999410816845e-02 9.999912018447958393e-07 1.615000020586563820e-03 2.053399999838129500e-02 3.999687386366915817e-06 5.620000020647629435e-03 2.036799999436423453e-02 -8.613775553325120591e-12 1.613000020516926983e-03 2.053999999838881235e-02 -3.000312565602082498e-06 5.619000020113223449e-03 2.036299999440387143e-02 -1.483100080381538795e-02 1.289899890940566889e-02 3.111300006898046894e-02 1.483299919626567508e-02 1.289800115290263074e-02 3.111399990524047268e-02 -1.482800080349078696e-02 1.289499890963655485e-02 3.111700006896790313e-02 1.482599919648704655e-02 1.289500115237222043e-02 3.111299990528210851e-02 1.538399895782530287e-02 1.313300115464279862e-02 -8.863000098035700436e-03 -1.538800104205646779e-02 1.313099882734251878e-02 -8.868999928176711511e-03 1.538299895811678399e-02 1.312900115456517268e-02 -8.865000098026185743e-03 -1.538600104202886808e-02 1.313099882749877399e-02 -8.863999928187751495e-03 1.999459887174100369e-06 5.687999980258611268e-03 -1.991500000569264642e-02 -2.000231737453136540e-06 1.622999980125910523e-03 -1.974500000161013430e-02 -1.000539945005809320e-06 5.685999980034716315e-03 -1.991200000567409228e-02 9.997684358867912965e-07 1.620999980356796748e-03 -1.974100000162469851e-02 6.929997310727251678e-04 2.067000032035672553e-03 -2.039900000588993831e-02 -6.870002689548703129e-04 2.066999927660922824e-03 -2.040399999827253660e-02 6.849997310506456298e-04 2.067000031426634993e-03 -2.040300000584577972e-02 -6.910002689217511779e-04 2.066999927364394831e-03 -2.039799999825045798e-02 1.999686076019157756e-06 2.663999979803131652e-03 -2.037100000267204683e-02 9.967358563268147119e-07 4.010999995834343967e-02 -4.177900004007045059e-02 -1.000313486758853834e-06 2.657999979573244433e-03 -2.037400000264949496e-02 -3.003264057003205663e-06 4.010899995804291518e-02 -4.177700004004737677e-02
8.012887849272524638e-06 -1.704229999996271783e-01 -2.329998298126330868e-04 1.100000676487111844e-05 -3.499999842290489366e-05 7.459999999742423105e-04 -3.987112080617037351e-06 -1.704240000005357580e-01 -2.339998297453959339e-04 -6.999993533777722829e-06 -3.199999979723494771e-05 7.330000000706030647e-04 -1.603000187756641222e-03 2.462999878496990869e-03 -2.679999936119044444e-04 1.612999813090194509e-03 2.451000121712911938e-03 -2.790000113517731510e-04 -1.590000187540790240e-03 2.459999879478186498e-03 -2.699999936806658958e-04 1.603999811988859664e-03 2.466000121038232698e-03 -2.730000113170776141e-04 -9.999826692193555718e-07 -2.119999998408935782e-04 2.350000002172816706e-04 -6.999960633791787475e-06 -5.000000002487259634e-04 2.810000005380772323e-04 -2.599998297009259673e-05 -2.070000017176657403e-04 2.490000003502836393e-04 3.000037161891001250e-06 -4.709999994944212500e-04 2.790000004539112738e-04 -1.488000179948517632e-03 2.360999887211451351e-03 -2.509999941448023551e-04 1.475999818149677538e-03 2.386000111377537501e-03 -2.530000105306259828e-04 -1.481000180307884837e-03 2.363999887716890323e-03 -2.749999941864380367e-04 1.479999822006820539e-03 2.335000111680058700e-03 -2.530000105017627321e-04 -7.003145523875372114e-06 4.141199999702321194e-02 -2.450000041326833369e-03 -5.000088900154798409e-06 2.628000019501489093e-03 1.990199999740255299e-02 1.996853378662006609e-06 4.142599999769690233e-02 -2.457000041390496482e-03 8.999909880369046599e-06 2.645000020572299288e-03 1.991399999730829318e-02 -6.970000476888299100e-04 2.081999967150369082e-03 1.988700000176767818e-02 6.889999513263251512e-04 2.094000071959921903e-03 1.987299999410517201e-02 -6.860000492086026653e-04 2.100999967967318808e-03 1.987200000168798386e-02 6.959999520086449735e-04 2.086000072503318200e-03 1.988699999407452304e-02 -8.000009546713478047e-06 1.623000019879920503e-03 2.050799999842298216e-02 -8.000312943176654992e-06 5.621000019694117993e-03 2.032199999442947311e-02 2.999990951226878166e-06 1.617000020719844408e-03 2.051599999836825616e-02 4.999688675953430730e-06 5.602000020710273982e-03 2.035499999437669766e-02 -1.477100080050528647e-02 1.285099891388554946e-02 3.105500006869722426e-02 1.476799919931741367e-02 1.285400114793672048e-02 3.106399990564321853e-02 -1.476900080087404678e-02 1.285499891402482400e-02 3.104300006868218956e-02 1.477999919949849611e-02 1.285000114882230669e-02 3.104199990558097200e-02 1.531899896206117412e-02 1.307400114968588004e-02 -8.904000097617978393e-03 -1.532300103790561890e-02 1.307399883222951781e-02 -8.897999928478565052e-03 1.531799896169958389e-02 1.307900114961324696e-02 -8.901000097617451506e-03 -1.532200103914882310e-02 1.308999883229915347e-02 -8.903999928500067745e-03 -1.500053767997017691e-05 5.656999978988878040e-03 -1.989900000556784482e-02 -1.000231427764535689e-06 1.619999980216523840e-03 -1.973000000161266240e-02 6.999462061667572059e-06 5.660999980660734801e-03 -1.989100000569327814e-02 8.999769834222676757e-06 1.601999980954846867e-03 -1.974800000164987981e-02 6.739997308436099102e-04 2.072000030625667857e-03 -2.037200000579005715e-02 -6.710002686286221062e-04 2.063999928888986517e-03 -2.038599999835786006e-02 6.819997302038010439e-04 2.079000031210732468e-03 -2.039200000584120639e-02 -6.890002696283750163e-04 2.076999927524645143e-03 -2.038899999827148771e-02 -2.000312758055551434e-06 2.647999979492619664e-03 -2.037900000263398806e-02 -2.003253706203305634e-06 3.997899995821243418e-02 -4.168300003992304187e-02 5.999687389332803709e-06 2.646999980110646862e-03 -2.036600000267714539e-02 3.996747882032087347e-06 3.995799995866621684e-02 -4.168300003993518493e-02
