-1.412881074919999946e+03
-1.412881076429999894e+03
-1.412881079230000068e+03
-1.412881083609999905e+03
-1.412881089590000101e+03
