-4.702363211100000058e+02
-4.702363225199999874e+02
-4.702363252800000168e+02
-4.702363295100000187e+02
-4.702363352899999995e+02
-4.702363425500000176e+02
