1.158697088372602621e-04 -8.395475022951433893e-05 3.198005911578004779e-03 3.587510220159055861e-05 1.990435118016373780e-04 3.070998641720913518e-03 -1.551354750468108732e-04 -1.519527516284851576e-04 3.323995840198139089e-03 1.587415621099513895e-05 1.350438393795103977e-04 3.092998734660301792e-03 9.878818664718231547e-06 -4.695782888401783741e-05 2.975001070797839067e-03 -3.912659559921571022e-05 -4.495590487062451425e-05 3.107999046996970730e-03 -1.621229071893378151e-04 -1.709571270843638757e-04 3.014995824816932551e-03 7.388288366845768406e-05 -3.959282601847671855e-06 2.876003067380511567e-03 8.487704652485254081e-05 8.204276455685249176e-05 3.021002295887423566e-03 -4.511960798985662733e-05 9.004170376632649310e-05 2.938996888830898348e-03 2.388111552515313109e-05 7.804139454048492520e-05 2.920999868719519575e-03 1.388043263208614570e-05 -1.395838495334840752e-05 2.936000765851303190e-03 3.587887973690450397e-05 -2.095786342233435461e-05 2.974001760919047378e-03 3.787600738634990834e-05 5.504315580527781304e-05 3.046000764783794983e-03 -8.212267928576770146e-05 1.604278190150118711e-05 3.012996431245112960e-03 6.880712957349787684e-06 -7.195849288889115088e-05 2.928001303123063497e-03 -7.120303459910603816e-06 -1.795811330970934939e-05 2.953999967407750817e-03 -6.122329341266558141e-06 -5.695741937680106481e-05 3.003000561015827137e-03 -5.051504536479793162e-04 -1.546947642810979698e-03 3.665001365563291640e-03 1.446531421146051441e-03 -6.135839661465466305e-03 1.138914590724100437e-02 -9.542073315666104241e-04 -2.414193364992873320e-02 4.627303427572408180e-03 -1.946132453416846327e-03 -6.629525401656657414e-04 3.239930154069006925e-03 -9.980405818260651429e-04 -4.136986217114431083e-03 9.170180131456076708e-04 2.929865045231180160e-03 -2.342955946729493276e-03 3.269152527554718222e-03 4.458617419739715863e-03 4.152130842812638660e-03 9.475122699393269746e-03 -1.069538756168438194e-02 -1.095185967201058042e-02 9.306719756711026928e-03 6.228926232476823463e-03 -1.238998257436189562e-02 1.573429311208705828e-03 -4.974153276370855276e-03 4.460058478685409271e-03 3.849734218082528654e-03 1.107283723554232900e-02 -1.048995486432551839e-02 3.795599623195359661e-03 -6.089830032033356072e-03 -1.222005774022125006e-02 -4.409074733615131123e-03 -2.939885250492864886e-03 -2.344038288783124695e-03 -2.863086483963275634e-03 1.953117751754708704e-03 -6.900427156174627260e-04 -2.904910686820493405e-03 9.922081770507267928e-04 -4.037074359083145901e-03 -5.189902364459959318e-03 -1.449241173583949065e-03 -6.788916746963417209e-03 5.792037242938676868e-03 9.460127828460939206e-04 -2.520801206623160540e-02 -7.986040842706133413e-04 5.071004485230542211e-04 -1.571035798775698069e-03 -2.496957078940869636e-03 1.213215708811171586e-05 -8.104604468933252588e-05 -3.246998359932539574e-03 1.130459384111750818e-06 -1.304542643802936329e-05 -3.203999771989790146e-03 -9.871379338134576021e-06 -7.304479399602698106e-05 -3.159999369294247233e-03 8.212858069825672985e-05 3.195517649112756127e-05 -3.156997111643897180e-03 -3.787007935734364183e-05 -2.504521158862982452e-05 -3.191001189981907109e-03 -3.887286869658304080e-05 5.295578163217845954e-05 -3.121002336633380784e-03 -1.686771908322471717e-05 7.695397800162778247e-05 -3.247001780923849685e-03 -9.868725406391135356e-06 -1.204570138107972482e-05 -3.224000234078324301e-03 3.713183842776195158e-05 8.395409167487868300e-05 -3.235999681252459646e-03 1.721293675403949336e-04 -1.590452200485648385e-04 -3.179990738793093703e-03 -8.686457416756662784e-05 -1.504708722520033264e-05 -3.326003326955750787e-03 -8.187017246616973688e-05 6.395487956541026989e-05 -3.187004243524023655e-03 3.112620010109046870e-05 -4.404397543407111273e-05 -3.099998110950267713e-03 -1.987262357874677038e-05 1.059556958609316727e-04 -3.126002314354025136e-03 -1.867773970791135288e-06 -4.504604790881091300e-05 -3.247999440423010673e-03 -2.187214819779448007e-05 1.929555556401997562e-04 -3.136003629251852935e-03 1.551176603254821181e-04 -1.330411235351866941e-04 -2.891991799937137370e-03 -1.228771193157069958e-04 -7.104270644851676600e-05 -3.019003999237023558e-03 1.182366658202911651e-04 4.164804337423703051e-04 -1.777060012552732216e-01 -1.069395964124766164e-04 1.540520210655653144e-01 1.478811528674546212e-03 -2.717141387317447549e-05 -2.259940913935786638e-03 4.166030938409749466e-03 2.360941474683712123e-03 6.660187090822121013e-04 1.450086698191099506e-03 8.009898612320894397e-04 -3.635998088988000223e-03 1.790841675833130392e-04 -3.151958297700916713e-03 -4.935013396451623513e-03 -1.119058383819788267e-03 -1.030006574288194017e-03 -3.869997959655622783e-03 8.701292538709288127e-05 3.320041886281194839e-03 -5.265018619925225518e-03 -1.129790159799191765e-03 -2.273060786976973530e-03 6.330231172684704609e-04 1.504898465582091716e-03 2.098896463493950899e-05 3.825739624158094693e-09 2.710008548859522580e-04 8.200238378069276400e-05 2.359991701695740986e-04 -5.400000679218837818e-05 -1.169957022747013508e-04 2.799860293921438623e-05 -1.050051612193498972e-04 -4.599958337554695072e-05 -4.000011993389336596e-05 -1.100130603838709332e-05 7.600505404754924748e-05 5.799819661761540724e-05 -1.229977274112556483e-04 -3.500072746107679342e-05 7.000282604476315131e-06 1.799847550913387834e-05 -1.272557477002978169e-09 -6.499957465958636096e-05 3.000092152673741643e-05 1.983309155377453970e-06 6.005811329501739192e-06 4.099999959939861004e-04 -9.995940494843289927e-06 -1.200014382930681176e-04 -1.019987057820760608e-04 3.985999863453353703e-06 1.000487402861221079e-05 3.440000207859879615e-04 -8.399879230952754766e-05 1.899996971298434844e-04 -2.600611430238300323e-05 7.600021923761672614e-05 7.199988377385226361e-05 -3.997926010566380854e-06 -2.002855992119041953e-06 -1.109990343327329175e-04 6.800149222682993534e-05 -4.100349025459590558e-05 -8.899877695337486423e-05 8.399959218796653078e-05 2.997858394756595766e-05 4.007434030073130224e-06 5.260011644255108663e-04 -5.100077284510600632e-05 5.300032348336820555e-05 1.999717179653732500e-05 -4.700474862782978421e-05 2.000169560086059690e-05 1.169978024559651660e-04 9.099762868794077379e-05 -6.399926311186254671e-05 5.700461292132640950e-05 -2.088430551568241553e-04 -6.670632841043581691e-05 2.070199246072857574e-02 4.031372067066115979e-04 4.163001961781342118e-04 2.119601053357048071e-02 -2.018583152412162598e-04 5.029901112564809232e-05 2.107899108662574655e-02 2.741400469860244744e-04 1.952992480500608397e-04 2.112200841393520323e-02 -4.685847355169238404e-05 5.629894647182050253e-05 2.108299731328737089e-02 -2.198560661522232836e-04 1.142982596121773460e-04 2.102498944632376354e-02 -2.285181820237383298e-05 -2.327034683383691013e-04 2.091400238811854176e-02 1.416328621417654513e-05 7.529132776441560581e-05 2.054899952837819024e-02 2.615227666454309502e-05 4.295132202572060954e-06 2.081800102339954536e-02 8.714485053317136301e-05 -1.470233519952192659e-05 2.100000377657978631e-02 -1.985634514535809559e-05 1.829817391160087618e-05 2.102999895155463136e-02 -4.685617046102062428e-05 8.529815251235663457e-05 2.102699690218428827e-02 -4.785867412069436019e-05 -1.477010385468224460e-04 2.108400016482933625e-02 3.514001885069894810e-05 -1.007006356729945429e-04 2.111700287827442124e-02 3.814138925244836163e-05 -1.187011200652107583e-04 2.108300325566832278e-02 -8.565761154448474635e-07 1.392982724448386283e-04 2.103799800973398665e-02 3.113914182628130435e-05 -2.470030645937823017e-05 2.114000163785961089e-02 -2.685869284395018335e-05 3.629900170289042529e-05 2.108799841125501284e-02 1.350625955233119430e-02 -7.258406587720015249e-03 4.260165293404007125e-02 -5.115029245428503145e-03 -6.973291373585838865e-03 4.969889062381054740e-02 -8.389167480482752001e-03 3.894131585479667138e-04 2.867765289169182247e-02 1.146142629788671251e-03 2.037298168113448396e-03 2.109401780710310273e-02 -7.578849733438860776e-04 2.250309328173093551e-03 2.177593725410496839e-02 -3.759973085696648133e-04 1.893475787019272005e-04 2.449498202731302185e-02 5.273560851132537766e-04 1.458557592588401002e-02 4.065081472086096853e-02 3.407009149073410097e-04 -1.391489992934111242e-02 7.077211162810109063e-03 -8.878294488976722076e-04 -1.203710843936572732e-03 2.034598093171866365e-02 8.658967702853460381e-04 -1.174313226672104226e-03 -2.204494811127647586e-02 -4.339354006238170915e-04 1.488298190718598431e-02 -1.300228679294588956e-03 -4.395848497642829448e-04 -1.374749611717307474e-02 -3.501682302362921217e-02 6.538388545382740284e-04 2.241708035538208903e-03 -2.055700517672015906e-02 4.287235456024919458e-04 1.267477821524192188e-04 -1.776598435553643912e-02 -1.079136529981133052e-03 1.953700744044409472e-03 -2.116707166219220990e-02 -1.367103101762080428e-02 -7.482980533027645646e-03 6.175493968739178500e-04 5.381681364102795795e-03 -7.055895200305437563e-03 7.689319190772051817e-03 8.321557336276373326e-03 3.597995324121255650e-04 -1.367966625307579995e-02 -1.714674177206009444e-05 -8.297067429303616471e-06 -2.095400060007440723e-02 4.785640391512773476e-05 1.087018183294990683e-04 -2.102899961194769005e-02 -4.414711218007515478e-05 -6.529693286029823783e-05 -2.094600089141230789e-02 -3.314464153870713356e-05 -8.229780631705933293e-05 -2.100700020240426139e-02 -2.614482947724325183e-05 -6.229774091107183743e-05 -2.100200020091821940e-02 5.685701381178322747e-05 -1.522984722470618337e-04 -2.104899554504517309e-02 -5.714052947255255824e-05 -3.129920530982929078e-05 -2.110700190267766549e-02 4.585828956264022331e-05 2.070113937018534878e-05 -2.107699844570158632e-02 1.385706174535542212e-05 1.167016181058360655e-04 -2.104500110986386521e-02 1.787280738637294915e-05 9.969612816875966538e-05 -2.143200070559872494e-02 -2.313196647067273083e-05 -2.243022659604496896e-04 -2.132099778166144169e-02 4.883302378867950694e-06 3.369246630536418328e-05 -2.169100029899663148e-02 2.038603466550610371e-04 9.970032093685581031e-05 -2.112599313180487173e-02 1.078605871668374095e-04 1.467003252107718200e-04 -2.113099770735681754e-02 -3.311372863660669384e-04 1.576999316996164605e-04 -2.118301573971751589e-02 2.608785127289272730e-04 -5.030608950892144970e-05 -2.157498868363445094e-02 -3.591432064361900012e-04 3.457020660960653932e-04 -2.103401954545939048e-02 8.686384715221354374e-05 4.569917908465327271e-05 -2.121299713046435192e-02
1.158707292089809998e-04 -8.095510467470085959e-05 3.173005869067954763e-03 3.287582499274363437e-05 1.860432589516198523e-04 3.052998703886018392e-03 -1.551347373702497345e-04 -1.459530068294065505e-04 3.305995755148290628e-03 1.287500743325613995e-05 1.300435439953002916e-04 3.071998683406087626e-03 8.795939352900213652e-07 -4.495809121536596133e-05 2.956000675972314008e-03 -2.512602551906714812e-05 -4.495611432170578970e-05 3.093999617101900450e-03 -1.551222540945564542e-04 -1.689573594102643966e-04 2.998996081522237178e-03 6.988353520521546809e-05 -3.959506314588859621e-06 2.860002904511980883e-03 7.887777793780215933e-05 8.004251405471451649e-05 3.003002079934577028e-03 -4.711863617305195323e-05 8.304136506593576706e-05 2.914996906655850650e-03 2.088201216969506562e-05 7.904108497787459494e-05 2.898999732399653705e-03 1.888120632389936595e-05 -1.395865824644108925e-05 2.917000969473221208e-03 3.587973330739776195e-05 -2.295816115583535963e-05 2.953001789294095597e-03 3.987690324317135409e-05 5.504284232778750940e-05 3.024000846245948528e-03 -8.312165577892361508e-05 2.304242823890758222e-05 2.987996291303157952e-03 -6.118308948134250693e-06 -7.095882297713065109e-05 2.904000759596545717e-03 -4.119486694878114314e-06 -1.495839921490751673e-05 2.934000047055605916e-03 3.878566508919691083e-06 -5.695773911826061084e-05 2.981000968244789610e-03 -4.861493902204566523e-04 -1.540948026311190957e-03 3.639002054217051543e-03 1.425534229359264222e-03 -6.085840609117673314e-03 1.132114434327816978e-02 -9.522054223152858453e-04 -2.399193427533283934e-02 4.583301382390493096e-03 -1.928131512151014118e-03 -6.569528803494947269e-04 3.216930801999127055e-03 -9.890402787654595587e-04 -4.113986323408281957e-03 9.100180535512151798e-04 2.905865997501876335e-03 -2.322956254028894860e-03 3.246151266720403213e-03 4.411619884160600941e-03 4.127130014770460584e-03 9.414121140014058628e-03 -1.061738557423866879e-02 -1.090986041362269204e-02 9.258722337515970513e-03 6.192926439270158082e-03 -1.233398260289085904e-02 1.569427051307029997e-03 -4.942151999188440850e-03 4.427057999943407457e-03 3.817735989045706064e-03 1.097983836642508516e-02 -1.044995517431138166e-02 3.768595269070766120e-03 -6.031830639734785289e-03 -1.216405755879594770e-02 -4.393073165775395091e-03 -2.911885732114006912e-03 -2.335038140574379611e-03 -2.851085471390470659e-03 1.936117513712356294e-03 -6.820426172405623724e-04 -2.898911492502647715e-03 9.802073054929773526e-04 -4.006074037778819229e-03 -5.167903292641291141e-03 -1.444239375577566382e-03 -6.728917360529646993e-03 5.749036595917096822e-03 9.470135495640072789e-04 -2.506101229387414434e-02 -8.146061276661182909e-04 4.991004579325713543e-04 -1.559035792512938803e-03 -2.496957574840840462e-03 1.313106310961641833e-05 -7.404566267255953979e-05 -3.219998418481132083e-03 2.129602678495137012e-06 -1.504512948712127064e-05 -3.182999702932934240e-03 -7.872266578965269102e-06 -6.204448365163022427e-05 -3.137999443828394432e-03 8.412780151562329763e-05 2.495544430395283186e-05 -3.137996930975513361e-03 -3.887101828655496310e-05 -2.804488471603787828e-05 -3.168001188190848472e-03 -3.887368389695675780e-05 5.195606518818652935e-05 -3.101002322474209066e-03 -1.786857265288858480e-05 7.895427651812494279e-05 -3.226001850019749508e-03 -1.786962360895664331e-05 -1.504538320531005126e-05 -3.202000517332294176e-03 4.413073739212887702e-05 8.195446899458202962e-05 -3.208999367876073927e-03 1.551276142076537796e-04 -1.620445970921271205e-04 -3.136991388554245200e-03 -7.386628053576185760e-05 -1.004650193724916153e-05 -3.284002868512546879e-03 -7.687195713511585067e-05 7.295549947251816342e-05 -3.143004167560541420e-03 2.412404033522868880e-05 -4.604321852974214621e-05 -3.046998367689966996e-03 -1.687460714879322122e-05 1.209563882224038350e-04 -3.077002404903474153e-03 1.301523990034323673e-07 -4.104532640764294336e-05 -3.196999415739771883e-03 -2.887399081624452375e-05 1.799561991232747498e-04 -3.091003730028717752e-03 1.551156571685866872e-04 -1.430404288222057849e-04 -2.842991658205052969e-03 -1.198788366456370540e-04 -8.004211332919268659e-05 -2.977003749513642324e-03 6.219216974220743532e-05 4.314959739189748195e-04 -1.766130037493233718e-01 -6.793961183234582888e-05 1.529930207515793061e-01 1.458828131057843518e-03 -7.171519597239283113e-06 -2.238940887064441027e-03 4.169031455090949426e-03 2.330939668103737452e-03 6.470193563970081307e-04 1.494085745902169705e-03 7.399900586432761563e-04 -3.591998097940851935e-03 1.750810597935207745e-04 -3.074959989234297714e-03 -4.911012861277341303e-03 -1.077055588619618698e-03 -9.980087262506673416e-04 -3.861997233289151711e-03 1.400141149829521332e-04 3.289040663923113554e-03 -5.214018156145829724e-03 -1.098792145240330741e-03 -2.291060394616558759e-03 6.660230037589162091e-04 1.495897264748943410e-03 1.198615333729635326e-05 -1.995188945328753391e-06 3.400005166896769081e-04 8.299898279365825718e-05 2.090003461463149918e-04 2.900041665111968294e-05 -9.899927553709621003e-05 4.099983648996499388e-05 -1.700461263675952798e-05 -7.000157632608144541e-05 -3.699940643031525466e-05 3.799767408234538469e-05 6.900098667079481406e-05 6.399961987751994147e-05 -2.299809761675408878e-05 -2.003896661806499087e-06 1.600136263273419947e-05 9.599969162484085403e-05 1.899517217650761300e-05 -8.099835606670374960e-05 1.170019219862490390e-04 -1.702116933769170809e-05 7.007385763817844350e-06 5.199992080177955273e-04 -5.000948378738203398e-06 -1.189996983393200363e-04 2.100148353007544669e-05 -1.001303066050964399e-05 4.544724477789769783e-09 3.199995924940173464e-04 -7.999935065100300269e-05 2.049998924854817654e-04 -1.200616409844492557e-05 8.900092869475009804e-05 4.199961839761004489e-05 -2.199697128986507642e-05 7.998967818079111955e-06 -1.219996801623768822e-04 2.300205543257116922e-05 -2.400360381190738191e-05 -7.799874773203235910e-05 8.700012848424857736e-05 9.979645056714717179e-06 7.007081067014370167e-06 5.000003074993676676e-04 -7.099828023796895258e-05 6.399947429666523783e-05 -4.100379851917764710e-05 -5.003120612637621229e-06 1.900109560330833048e-05 7.699952694665946978e-05 7.399930765936286439e-05 -5.199983109174752689e-05 1.600375057180934796e-05 -2.408340691204087969e-04 -3.170942247306713383e-05 2.048199066164413037e-02 3.791450102399031665e-04 3.972974928352476700e-04 2.100400982582604006e-02 -1.388498054214795359e-04 4.929599863776016076e-05 2.086999366641141551e-02 3.181500431196894680e-04 1.682957258632925143e-04 2.087601058868094467e-02 -1.308500748025250775e-04 6.929609161634222051e-05 2.087699370861645018e-02 -1.838488507576647481e-04 1.242957219535283336e-04 2.084799077066130588e-02 -1.844443829881739418e-06 -2.277060509627531874e-04 2.073300317253585698e-02 1.917139590079839113e-05 3.128848829479789534e-05 2.034900035598995530e-02 -9.838900179083991633e-06 3.929209798310681959e-05 2.060199906142797660e-02 8.115056710223777624e-05 -4.670432956746523582e-05 2.085900398607418160e-02 -2.484882510655826948e-05 1.295554936153255090e-06 2.084499898914432894e-02 -4.884978120534746706e-05 8.029592816498097921e-05 2.086999689177735165e-02 -7.485200917630664068e-05 -1.127033283900988271e-04 2.092099856929615850e-02 4.814652322927106328e-05 -6.270290012523815025e-05 2.095800286903828219e-02 3.614810508339641172e-05 -7.070344366249696260e-05 2.091900249384642807e-02 -1.784979766112078400e-05 1.112959180667703489e-04 2.087099771461213907e-02 2.714589286973243264e-05 -3.570265684031497227e-05 2.097400163108591870e-02 -8.851139939121421309e-06 9.296350541743973281e-06 2.090199952720285526e-02 1.341127337401336848e-02 -7.236411319610226191e-03 4.226264875396355120e-02 -5.100012206082646729e-03 -6.898297297479008723e-03 4.928189017167870084e-02 -8.299155972231143583e-03 3.694090757642411399e-04 2.839465684038676788e-02 1.137149557015397191e-03 1.991295750762043810e-03 2.092301809295151957e-02 -7.218768206114151761e-04 2.209306450252497469e-03 2.157493930153076001e-02 -4.059877900546754502e-04 1.763442845890074071e-04 2.426098099021594193e-02 4.683695057757940772e-04 1.451157127923797564e-02 4.031981336779294489e-02 3.847051913925846663e-04 -1.380990142411645145e-02 6.974211465958142855e-03 -8.578195764570812959e-04 -1.180714298455253809e-03 2.010398182748060134e-02 8.978859831540697252e-04 -1.169309494612713954e-03 -2.177994687934440426e-02 -5.129386935112835574e-04 1.478598308909829032e-02 -1.221230521072209267e-03 -3.895964121486144736e-04 -1.369249211565674688e-02 -3.473182176762858175e-02 7.268311292467463831e-04 2.204710657986543639e-03 -2.036800167969647635e-02 4.137135517705134088e-04 1.047512674594434278e-04 -1.752098465466615795e-02 -1.132143717936519647e-03 1.978703295010464467e-03 -2.099007417500594816e-02 -1.360503357912063414e-02 -7.373979663159681806e-03 6.825505390134497348e-04 5.356680927947892953e-03 -7.040895024776297473e-03 7.700317960074096538e-03 8.271550205469400951e-03 3.538020526767267078e-04 -1.350466820421445530e-02 -1.515205896514367231e-05 1.370478829367880145e-05 -2.082300083066528085e-02 5.285095123628664261e-05 1.137037142385929032e-04 -2.089499947935681903e-02 -4.115320542066880100e-05 -4.629480854189764710e-05 -2.079600103876669617e-02 -4.115134401563058414e-05 -6.129546071897218416e-05 -2.084200082605748572e-02 -3.415055700472688463e-05 -4.429573557977097161e-05 -2.086100078201584551e-02 7.284970050235400570e-05 -1.312959327739519867e-04 -2.086899519141191539e-02 -5.814816934315686744e-05 -6.329655327587425126e-05 -2.092000148988391872e-02 4.385212191169361007e-05 -3.296718214303015795e-06 -2.092599818701733685e-02 1.385121280730872151e-05 8.370364553389976676e-05 -2.090200064213060260e-02 1.786664676094760495e-05 3.269825484481852444e-05 -2.128199975582801065e-02 8.613043843644555507e-07 -2.372999454148119541e-04 -2.115599662020347521e-02 -1.812281199664545292e-05 2.569461098438673624e-05 -2.154100112229354394e-02 1.438557053126372580e-04 1.007019841851957667e-04 -2.101199558933967981e-02 1.598565518426800275e-04 1.417016880972167558e-04 -2.103199551907576972e-02 -3.131432652923164285e-04 1.667020017406967429e-04 -2.103601513447871801e-02 2.408716763458342968e-04 -4.430369197998217080e-05 -2.140698958327422532e-02 -3.721486669108553589e-04 3.927039902726513123e-04 -2.089902074131083295e-02 1.288573826902722561e-04 5.870140046696691933e-05 -2.105399560464733810e-02