-4.702363457800000219e+02
-4.702363471300000128e+02
-4.702363498299999947e+02
-4.702363539500000229e+02
-4.702363595900000064e+02
-4.702363668200000006e+02
