-5.226266592980546204e-05 -1.648639534678508489e-01 3.280335282264775030e-03 1.595908170306723634e-03 -1.094969576356635051e-03 2.234080513052655748e-03 -5.760957943274589441e-04 3.910339105634257615e-04 2.359970999090388842e-03 -3.923155758938019419e-03 4.307058478084004570e-03 3.907779184840945615e-03 4.355800135651534226e-03 3.842067222657926610e-03 4.982122904428964300e-03 1.771917452027491850e-03 2.530274217854844841e-04 2.032068568485077310e-03 -4.412076969741623826e-03 3.156031115139632751e-03 1.950775592769724443e-03 -8.351735002205830892e-04 8.450612921473730577e-04 4.276954013903295528e-03 1.414877456954395044e-03 4.193042701025408853e-03 3.089998169769652813e-03 -6.941019265714256248e-04 5.160361721470612447e-04 2.512964421667295174e-03 1.113875831831971641e-03 -1.195764415844551304e-05 3.049045530326960091e-03 -6.991481334667155661e-04 -5.089480155927962124e-04 3.627978749234091454e-03 2.448752828088896177e-04 -3.795677942082519051e-05 3.062010512517105137e-03 1.718942570138836095e-04 -4.559634424949688195e-04 2.588013466640732684e-03 1.798559055277454302e-04 5.930501901744502117e-04 3.549998919039390986e-03 -2.121229397740071485e-04 -1.251957371381486267e-03 2.995009114955276934e-03 -1.861270146233181698e-04 1.187044692150652928e-03 3.141975593995658192e-03 -4.281247980746041740e-04 -3.795622410882152102e-05 3.063983107382444240e-03 3.887358840091660508e-05 3.404399151432513105e-05 3.105001103182832966e-03 3.887346856413570532e-05 -1.495598012514438549e-05 3.107001797891383466e-03 9.874141253131330420e-06 -3.995619843825675435e-05 3.090000971446590569e-03 1.898739030473871564e-04 -3.195625431159912684e-05 3.096008187772106377e-03 -1.283207947390424886e-07 -6.395533993815391322e-05 3.150000904448627126e-03 1.887722900232753010e-05 3.042731175790711831e-06 3.015000728360141616e-03 -1.122035680225121088e-06 -4.595752253745831082e-05 2.996000608671191539e-03 2.587349764208088512e-05 1.780440725677351105e-04 3.109998532209180908e-03 6.287642314336073580e-05 -3.795703389379497954e-05 3.034003101348230549e-03 -1.738656932473515494e-04 -2.480466929917523374e-04 -3.303003566272290879e-03 -3.388044977917090616e-05 1.479584431331488635e-04 -2.933003480091418876e-03 1.171355195421662965e-04 -2.070473320038324918e-04 -3.331992297765959659e-03 -7.589790022889993787e-05 6.796452994567244344e-05 -2.506004056543026815e-03 -1.828753947614331370e-04 2.069568159247985658e-04 -3.056010383871939507e-03 1.511271045792763419e-04 1.749556753839959298e-04 -3.117996329361600542e-03 -6.787072841525609022e-05 1.859550954358908973e-04 -3.171005403134124351e-03 5.612932395634061890e-05 2.009549841650600356e-04 -3.172000566414108231e-03 5.127080234721421863e-06 -2.200443095033123250e-04 -3.124996674382786704e-03 -3.614355069330289078e-02 -1.447148024048698460e-02 -3.587026665540470755e-02 -3.207204549213576311e-02 1.261439257029830542e-02 2.591651517918213202e-02 6.212250654437608596e-04 -9.850791161943981029e-04 -5.545960742098888369e-03 -3.056083540560362768e-03 5.737033044651472513e-03 2.161794217240184477e-03 -1.035490129461573948e-02 9.219739960566026259e-04 -2.406434734074616028e-03 -2.556891245402467382e-03 -7.440360651843756952e-04 -2.685093572464313742e-03 -1.668791137918191605e-04 -1.804196311226075595e-05 -2.969006542422416173e-03 -5.058757637406713229e-04 9.829574090214159270e-04 -3.032034538673610783e-03 -5.678249128537286730e-04 -8.480607465374829634e-04 -4.316011102687867564e-03 1.713202791924593326e-05 1.395402227508642717e-05 -3.241999503220461577e-03 1.112151567891149942e-05 5.957684845073567056e-06 -2.983999634363296901e-03 -3.187399245584725184e-05 2.195615895480533682e-05 -3.094001612101854315e-03 -2.087603242483865366e-05 1.695685923211983625e-05 -3.044001093330154541e-03 5.126337198052472835e-06 2.695601656108059875e-05 -3.102000176311744007e-03 -3.874855452445562759e-06 1.195643476562371038e-05 -3.073000330159910472e-03 -7.875791244874736903e-06 1.295676398680087621e-05 -3.050000507242459167e-03 1.912597775104215577e-05 3.595613319838538547e-05 -3.092999733828065510e-03 1.312205523462817841e-05 1.895749896643098649e-05 -2.996999737220435063e-03 6.004872391502197577e-06 -1.800170603160591688e-05 -1.199995003635990793e-04 3.400587944423177737e-05 1.999793177358216866e-05 -1.439988989124692264e-04 -2.600855527270542244e-05 -4.997002304569613211e-06 2.099990119514726550e-04 7.800667656094036691e-05 -5.400240040449126984e-05 -1.649960580210019473e-04 1.200009007601689714e-05 6.299997641989964388e-05 -1.000404547955435656e-06 -2.059959912145949092e-04 -8.100125647416247035e-05 -1.000072400035293454e-04 -4.600961159727462115e-05 1.020034103228368438e-04 2.379966804877305662e-04 5.299919810139868027e-05 6.800025622805118636e-05 2.100119409767184521e-05 -3.399892869278430441e-05 1.599965799757687633e-05 -2.600161132898388193e-05 4.229020203098084359e-03 9.469899116276045371e-04 -4.778412174182832006e-04 1.098037939383438933e-03 4.529860541194329505e-04 -9.229617101743052424e-04 -4.087893838027725009e-04 2.412293356875298139e-02 -4.708358660639676806e-03 -2.513543358735799340e-03 2.197684897364703821e-02 -1.079141394689612891e-02 -8.759607086463274891e-03 -9.856784457773019523e-03 1.471878306259680712e-02 -4.108107655190117169e-03 1.357304440167542495e-02 2.904640281259589403e-03 9.209722642080515323e-04 2.801009699257759472e-03 7.349977913051519750e-04 6.490245878627160783e-04 1.757991410314911152e-03 -5.699984961459295162e-04 -9.819918248511860358e-04 2.480998599449421409e-03 -1.530751627647301003e-04 3.229981320334963458e-04 -4.499961490243050821e-05 4.501379079243476730e-05 1.499951914823241539e-05 -4.199985578495926366e-05 1.100120626860678909e-05 7.599516201772044067e-05 6.200164182148542214e-05 1.200022156517980892e-04 1.379900805055858659e-04 1.250033796715884079e-04 2.460038470283395129e-04 9.101235396055514990e-05 -8.400439547176780499e-05 -3.049951031868896050e-04 1.300009959981019618e-04 2.399955794099153936e-05 -2.399504653336769101e-05 -1.089907775103409122e-04 -1.830031755279040565e-04 -2.300018438282495936e-04 -1.000320599301939899e-05 -3.799888629816927334e-05 7.800013147399191603e-05 -3.200890916815069952e-05 1.150031583370589555e-04 2.209970662845242952e-04 -1.364920170849280232e-02 1.781643394843825112e-02 2.985319162303779611e-02 -6.168722416990936536e-04 -5.216959710230178234e-04 2.140998229684553875e-02 1.513580396051493297e-02 1.739040931162313605e-02 2.970636981260200635e-02 1.789448248513540491e-04 4.110903028124827940e-02 2.145424453359058570e-03 2.261755952266636480e-04 1.181287177697236098e-03 2.026799248085344937e-02 -1.413850514090875905e-03 1.170297549778868528e-03 2.090892585401714354e-02 -8.208480029865467724e-04 1.621296333993527865e-03 2.085594360735979966e-02 1.168176580040080140e-03 5.162859156034682682e-04 2.023104026814229878e-02 1.790544659859410201e-04 5.150330470551587984e-03 2.331893429259403877e-02 -2.615963216757068686e-03 -2.348663228657516065e-03 2.360892679659382792e-02 -2.594740292192902146e-03 2.352260421175414538e-03 1.822486100707059950e-02 -1.040849139819171156e-03 6.629647805385322087e-05 2.085395669519660503e-02 8.791750416162427305e-04 -8.757137020145641789e-04 2.024204823525284705e-02 1.488151790719747548e-03 9.294157595232390592e-06 2.083006048638390978e-02 8.461113746385744800e-04 8.133089514154381861e-04 2.183802294373862751e-02 -6.018542420668629477e-04 -7.021076280798408525e-07 2.097797552144512606e-02 -2.849465413421937387e-06 5.872959204516370497e-04 2.087199157680856565e-02 4.912360574002911691e-05 -6.236950747086385380e-04 2.151001086297129813e-02 -2.885578212327603319e-05 -4.270203170221467079e-05 2.101499944992448604e-02 1.139754255891769682e-06 2.929951853592754302e-05 2.112599965064786492e-02 -1.028563474522196708e-04 -3.670177527196890959e-05 2.102899635150190863e-02 -1.168592534082198641e-04 1.522992990055761580e-04 2.110399310174298007e-02 1.091440173173419614e-04 1.329794530544254899e-05 2.102100427544160988e-02 -1.958543105744927173e-04 -8.770242551574854021e-05 2.097799328757610215e-02 2.214511139214698709e-05 5.829764479889215769e-05 2.099500009475237586e-02 -8.785353767673724046e-05 6.729726306031501629e-05 2.096199548788955924e-02 -8.286088699644214572e-05 9.429982532357306026e-05 2.114299530852594214e-02 -5.914754338286522803e-05 -1.135297062785441298e-03 -2.095598633200886768e-02 -3.691678890167517059e-04 -2.332894902273620905e-04 -2.043901174429596165e-02 5.378386608012097675e-04 -2.402924830292233317e-04 -2.059997471108999251e-02 -1.165101506868929408e-03 2.946881649558611262e-04 -2.205905164244661293e-02 1.176896209279409099e-03 3.446871393081590721e-04 -2.200195698315446022e-02 -1.345871616674688324e-07 4.846988218272017639e-04 -2.124300689718867582e-02 3.858503067286307492e-04 6.427038220702232033e-04 -2.086899341937444030e-02 4.486750640276573855e-05 -3.253021632382573536e-04 -2.130999358069968208e-02 -3.511448641187567038e-04 6.207027119829597794e-04 -2.098802311862029563e-02 -1.129722040793562643e-02 -1.166262899395610880e-03 -1.916744351508610153e-02 1.308907301539851686e-01 1.236432915719915622e-04 -1.792567178917138515e-02 -1.259612888489089651e-02 -5.142935697219702066e-04 -2.140250565329582938e-02 -2.058102005789194666e-03 -1.434311433387971089e-03 -2.208006349279410460e-02 -4.629885866632367682e-04 4.246649377380057669e-03 -2.475607908442322563e-02 -1.586244285086294307e-03 -3.669262875165044558e-03 -1.862901258845907349e-02 -9.892916504367801726e-04 -4.197246995562467498e-03 -1.747598079332366924e-02 -1.556943056281935361e-03 6.797635077657439295e-03 -2.582515979951521129e-02 -1.550096361194764141e-03 1.196686920938754700e-03 -2.216808010821561675e-02 1.385202401487104694e-05 -7.629668053926373877e-05 -2.092499837366706625e-02 1.108521821413196746e-04 -3.029679902791428074e-05 -2.092799507591883504e-02 -1.814471275641019879e-05 3.470223863738484417e-05 -2.100300125039353955e-02 1.585797163155569061e-05 -2.129873789112834859e-05 -2.106999907186755949e-02 3.851717062208647256e-06 -5.229655928935874476e-05 -2.091699912114933918e-02 4.859203427353445500e-06 -6.029916878589524693e-05 -2.110099896683533330e-02 -1.914466735828118044e-05 -1.129778893057239430e-05 -2.100500063893541089e-02 -5.414763140620860343e-05 -1.562967690654138331e-04 -2.093500000845456566e-02 7.485331686968397114e-05 -3.729716781761714878e-05 -2.095599644259910424e-02
-5.026270422663986032e-05 -1.647049534127216497e-01 3.284333109438367614e-03 1.590907898585739800e-03 -1.077969473198800258e-03 2.241080068419914161e-03 -5.710967731989133106e-04 3.890342469157353242e-04 2.383971231027860824e-03 -3.908156530295700017e-03 4.310058735716871398e-03 3.926779753102759875e-03 4.364799627404651605e-03 3.817067385747026278e-03 4.994123625349555610e-03 1.750916965745549867e-03 2.560276083616456534e-04 2.044067670802758498e-03 -4.418077376161473786e-03 3.157031261615462613e-03 1.960775334257558369e-03 -8.541743960633047363e-04 8.450616189357979370e-04 4.298953240186672957e-03 1.433876689511264001e-03 4.201042955525787284e-03 3.108998830026053935e-03 -7.051029156160648322e-04 5.010365210286198308e-04 2.536964186382074764e-03 1.135874932820950733e-03 -1.595734947245970212e-05 3.071046482876287152e-03 -7.081494756798243457e-04 -5.069475406787853772e-04 3.660978354360227855e-03 2.238745185332286349e-04 -2.595649360100374598e-05 3.081009487228407364e-03 1.768932382051628042e-04 -4.569630919649646781e-04 2.613013684399511424e-03 1.958550926648217397e-04 5.950504612022174383e-04 3.569999542198889434e-03 -2.161231582627858288e-04 -1.270957297358609383e-03 3.000009221444730704e-03 -1.991280200963604701e-04 1.203045056772874188e-03 3.166974837757138752e-03 -4.131256062352574960e-04 -2.995595229866308658e-05 3.083983604754511436e-03 3.587314830989954504e-05 4.404414981805447431e-05 3.116000839232419082e-03 4.087219602998122634e-05 -2.795554217816988575e-05 3.138002063615193387e-03 1.287295956270931290e-05 -4.095578963107887686e-05 3.119001107759949119e-03 1.978735326353243766e-04 -3.695613297490604624e-05 3.105008584419366446e-03 -1.012876009637681065e-05 -5.295517615355229275e-05 3.161000341274492354e-03 2.487616712121688321e-05 -9.569048991035343018e-07 3.041001029372132538e-03 1.387715380840108538e-05 -4.095725072699743995e-05 3.016001148576548992e-03 2.787243733143481605e-05 1.760444396246238518e-04 3.135998641982240456e-03 4.787569096425501491e-05 -3.695676694863691278e-05 3.052002476340967812e-03 -1.588652014754184658e-04 -2.440468748706422814e-04 -3.315003012159422734e-03 -2.988028454840800421e-05 1.509583832896803769e-04 -2.937003359737586604e-03 9.213589310262279249e-05 -1.980474400299941820e-04 -3.340993443378742142e-03 -8.189748909765599014e-05 7.296439286519167382e-05 -2.516004371747655299e-03 -1.818751567058103722e-04 1.989567300758367241e-04 -3.062010229723403053e-03 1.531272893760539074e-04 1.509556029314462863e-04 -3.122995907648926876e-03 -5.687019200129795384e-05 1.949549025106861704e-04 -3.184005082792548593e-03 5.113006712206315669e-05 2.139547328784137230e-04 -3.190000954312556189e-03 -4.872269007117883101e-06 -2.210445285179757694e-04 -3.140997067398660844e-03 -3.614155019211730269e-02 -1.445548041218813577e-02 -3.588226680079607128e-02 -3.207404455163691270e-02 1.261939224577449982e-02 2.589351502687299578e-02 6.262260098546690735e-04 -9.750794461996801837e-04 -5.568960680250887273e-03 -3.053083163105261774e-03 5.751032914700914510e-03 2.152794140922415639e-03 -1.039390051853671289e-02 9.249737572150384425e-04 -2.425436364703437153e-03 -2.539889944700407780e-03 -7.470365321844596625e-04 -2.717092837646807330e-03 -1.628780292203527082e-04 -3.704234904280476605e-05 -2.996006110136406782e-03 -5.058753369679152992e-04 9.559572530683888448e-04 -3.043034155863771992e-03 -5.708240138584663986e-04 -8.440610561003957131e-04 -4.338011281541023258e-03 3.013292298337049728e-05 1.295370018473922174e-05 -3.263998959651182464e-03 1.812233479134684708e-05 1.195739580758834210e-05 -3.003999434365328246e-03 -4.987265962322648898e-05 7.955705182900514892e-06 -3.127002146557809545e-03 -1.787465732164831628e-05 4.956374839298758250e-06 -3.078000801002833513e-03 3.412701689110427222e-05 1.095575283328388785e-05 -3.118998768547042409e-03 -3.887356567728547538e-05 -5.043991517248660016e-06 -3.105001514337973282e-03 -2.874550034484218864e-06 3.795633473543891191e-05 -3.080000658054402041e-03 2.312665357194283432e-05 6.695590321854979641e-05 -3.109000010440455142e-03 3.122987904375007064e-06 1.395718070760324793e-05 -3.020000073518748062e-03 2.300089583940404840e-05 -3.299204095772753973e-10 -2.199906339997315181e-05 1.700279877881347995e-05 3.799902259514981114e-05 -6.799984643733008162e-05 -1.401077455594818635e-05 2.100376807560039378e-05 2.649991319287079501e-04 8.700362327404838705e-05 -5.300134411690524843e-05 -8.999570578082524371e-05 5.995148755029152687e-06 4.500169663293013901e-05 1.199996062141988761e-04 -2.119985135509787322e-04 -7.800037275317543836e-05 -3.800752691956154879e-05 -4.901031011765450405e-05 9.400365369515298125e-05 2.549966717314818086e-04 3.899791617763274834e-05 4.300070670417391490e-05 5.200097842102534176e-05 -2.100065386674323975e-05 -2.999756712052479779e-06 1.599918738054337717e-05 4.180023896222971429e-03 9.829886739892042518e-04 -5.678437230558088617e-04 1.089039388911081704e-03 4.839855649404354514e-04 -9.579625161400968361e-04 -3.947910323122656782e-04 2.394193408238771276e-02 -4.671355524406968669e-03 -2.462542562458432550e-03 2.179784860764298615e-02 -1.081440933229168254e-02 -8.719598374562426493e-03 -9.807787508968220103e-03 1.450578399691844662e-02 -4.093104059306404592e-03 1.343304309976521733e-02 2.813642877043835006e-03 9.149742524820270780e-04 2.792009009244670811e-03 6.859976746254667487e-04 6.720242049010365830e-04 1.736991519908274864e-03 -5.609972618416874746e-04 -1.003990809162659146e-03 2.477998262230755259e-03 -1.780760160669242877e-04 3.069992510738028270e-04 -7.199999935004027440e-05 1.701352208445927047e-05 6.600002888751598732e-05 -6.700008002658265291e-05 -1.996362511814803470e-06 4.199863896380941420e-05 3.000044915617945744e-05 3.400128491123653908e-05 1.119904572011657106e-04 1.380032724280196368e-04 2.370026039836517669e-04 1.030121307820464294e-04 -5.700431980367141741e-05 -2.989949973418674217e-04 1.430006138282899342e-04 3.999675364216006957e-06 -1.499423361540021546e-05 -9.399162482468727156e-05 -1.730028895401518872e-04 -2.090013748126390964e-04 5.998781504117205526e-06 4.000420635480715184e-06 3.000018758616488089e-05 -5.900734216449928193e-05 1.400026407192110503e-04 1.829956124127821940e-04 -1.350019108912142891e-02 1.775343011719579187e-02 2.959119858388726751e-02 -6.548605508436442998e-04 -4.646999961243841000e-04 2.112397994158654591e-02 1.501981364979536326e-02 1.733540601396314079e-02 2.946736586898244387e-02 1.969459319849521499e-04 4.080702979931754432e-02 2.112429468049622366e-03 2.391833376105353840e-04 1.084284445391354903e-03 2.007599438564605307e-02 -1.437840788867350041e-03 1.109294165906038509e-03 2.066892574178338937e-02 -8.038408110584530390e-04 1.653293825387383131e-03 2.067994384608944775e-02 1.137184273170259701e-03 5.122832602734286650e-04 2.004203906268266569e-02 1.880611520069918740e-04 5.108328124172621491e-03 2.315393525470114955e-02 -2.644957475119555975e-03 -2.400665219192326793e-03 2.346692635306484379e-02 -2.573736858363990642e-03 2.317259199623417955e-03 1.813986235850920808e-02 -1.008844635528921866e-03 -5.705134907846039708e-06 2.074195901916692578e-02 8.711787417343046323e-04 -8.827149859292672020e-04 2.015104800881497779e-02 1.499156306830979214e-03 5.629258942004657974e-05 2.072006026806064161e-02 8.201138899743190937e-04 8.533081069237887211e-04 2.177702131794266582e-02 -6.648512991441010321e-04 1.329692089800046916e-05 2.090597275760975107e-02 6.415564344177335785e-05 6.112940957640548541e-04 2.074699396495546799e-02 3.812880315375903958e-05 -5.906968666790188456e-04 2.138300994729380039e-02 -4.885284942263372462e-05 -4.170303684365850571e-05 2.094299862139663293e-02 6.142107441157071482e-06 1.829869230992462177e-05 2.106800001026143745e-02 -7.985328165469270155e-05 -2.170285661704491291e-05 2.095399707548475238e-02 -1.268550458326553972e-04 1.692978465209015013e-04 2.100099245360823735e-02 8.814733609571094933e-05 3.929681334431629958e-05 2.094000305175718404e-02 -1.658506762581583784e-04 -7.470371083073110196e-05 2.088899432497344499e-02 4.414874804085567635e-05 2.229635157502324585e-05 2.090500150109424887e-02 -8.485013906872213030e-05 3.929606977933875844e-05 2.087799600710757777e-02 -9.285702085906753398e-05 9.129848626327756076e-05 2.104799494393903500e-02 -1.815786927161681474e-05 -1.113293493730479252e-03 -2.070198497460088924e-02 -3.241808821363322728e-04 -2.372850027450650013e-04 -2.012000985544315154e-02 4.548275464314473866e-04 -2.372885475027106442e-04 -2.032697813370770712e-02 -1.161110857018961577e-03 2.626914085422406829e-04 -2.183005102608765596e-02 1.194885982823641179e-03 2.856906696690169733e-04 -2.175195541392349607e-02 -2.714528893442442263e-05 3.907025433821640129e-04 -2.098200666418451391e-02 4.278405728708676832e-04 6.927071918502312109e-04 -2.062899241820997237e-02 6.856637154256487948e-06 -2.172983196683383415e-04 -2.104099665954054302e-02 -3.721537185208306287e-04 6.497058191823446667e-04 -2.077002438511596147e-02 -1.123722720917422549e-02 -1.219260592856007130e-03 -1.900144032056788265e-02 1.302047250957671098e-01 1.116455867551892958e-04 -1.780169955365736023e-02 -1.248813601974678097e-02 -5.252911731702575348e-04 -2.122750109965118939e-02 -2.071108700426235998e-03 -1.403309083875911361e-03 -2.191506446182922216e-02 -4.219966040012835076e-04 4.252652138302296693e-03 -2.455907750011804280e-02 -1.592252708760222984e-03 -3.558259907319026583e-03 -1.842001440671020909e-02 -1.055299864238119865e-03 -4.182244079971570057e-03 -1.727398369375407819e-02 -1.536952304655628265e-03 6.739638266185116536e-03 -2.559915816299799737e-02 -1.487106239197503576e-03 1.166690302639499140e-03 -2.192607711769405457e-02 -1.615280685231204824e-05 -5.729496989364626268e-05 -2.080599986478072830e-02 1.288489315113509480e-04 -2.129567889912333212e-05 -2.084799447061775474e-02 -1.480597159552007640e-07 2.470338712368194079e-05 -2.092100037571680698e-02 3.885059643899650835e-05 -2.729618971847431964e-05 -2.088899805038966356e-02 -6.154001844307831455e-06 -2.329455239317450754e-05 -2.077599993964406033e-02 7.855709268359136222e-06 -5.029795184549059293e-05 -2.101499898653035742e-02 -1.714769872429102208e-05 -3.429674133738915925e-05 -2.093100023147393893e-02 -3.015176538743950655e-05 -1.832953558972679950e-04 -2.083399864844841590e-02 5.285046407840953477e-05 -4.029615814572386738e-05 -2.088599729598960772e-02