-4.702367863299999726e+02
-4.702367868800000110e+02
-4.702367878900000164e+02
-4.702367894099999717e+02
-4.702367914700000142e+02
-4.702367940099999828e+02
