9.357380874378055324e+00 -2.473533012445516959e-17 0.000000000000000000e+00 1.553951863730403060e+00 1.605707335124654023e+01 0.000000000000000000e+00 0.000000000000000000e+00 0.000000000000000000e+00 2.166639826000000113e+01
9.357380874378055324e+00 -2.473533012445516959e-17 0.000000000000000000e+00 1.553951863730403060e+00 1.605707335124654023e+01 0.000000000000000000e+00 0.000000000000000000e+00 0.000000000000000000e+00 2.166639826000000113e+01
9.357380874378055324e+00 -2.473533012445516959e-17 0.000000000000000000e+00 1.553951863730403060e+00 1.605707335124654023e+01 0.000000000000000000e+00 0.000000000000000000e+00 0.000000000000000000e+00 2.166639826000000113e+01
9.357380874378055324e+00 -2.473533012445516959e-17 0.000000000000000000e+00 1.553951863730403060e+00 1.605707335124654023e+01 0.000000000000000000e+00 0.000000000000000000e+00 0.000000000000000000e+00 2.166639826000000113e+01
9.357380874378055324e+00 -2.473533012445516959e-17 0.000000000000000000e+00 1.553951863730403060e+00 1.605707335124654023e+01 0.000000000000000000e+00 0.000000000000000000e+00 0.000000000000000000e+00 2.166639826000000113e+01
