9.345621266597474275e+00 2.719360411252917231e-03 4.882089999999999819e+00 1.806801208359730904e+00 2.678894202160626126e+00 4.882080000000000197e+00 3.573449302086946777e-01 3.565398058569918316e+00 2.311850000000000183e+00 1.657915698325054699e+00 8.892234723888856607e-01 2.311850000000000183e+00 3.107371976476090314e+00 2.719615979593364638e-03 4.882089999999999819e+00 4.925926335054152005e+00 2.678899051125289255e+00 4.882080000000000197e+00 3.476469093635656815e+00 3.565392954036914919e+00 2.311850000000000183e+00 4.777039861752016670e+00 8.892183678558819304e-01 2.311850000000000183e+00 6.226496139903052729e+00 2.714511446589761446e-03 4.882089999999999819e+00 8.045050498481113976e+00 2.678893946592285857e+00 4.882080000000000197e+00 6.595594220330077917e+00 3.565397803001577604e+00 2.311850000000000183e+00 7.896164988446437327e+00 8.892232168205451703e-01 2.311850000000000183e+00 9.863604857059176112e+00 5.355073381737981641e+00 4.882089999999999819e+00 2.324785762088891428e+00 8.031258176985021535e+00 4.882080000000000197e+00 8.753285206703961263e-01 8.917752079896645867e+00 2.311850000000000183e+00 2.175899288786756092e+00 6.241577493715614544e+00 2.311850000000000183e+00 3.625355566937791707e+00 5.355073637306321466e+00 4.882089999999999819e+00 5.443909925515852954e+00 8.031253072452017250e+00 4.882080000000000197e+00 3.994453647364817339e+00 8.917756928861310328e+00 2.311850000000000183e+00 5.295024415481178082e+00 6.241582342680278117e+00 2.311850000000000183e+00 6.744480693632213253e+00 5.355078486270985039e+00 4.882089999999999819e+00 8.563035052210274500e+00 8.031257921416679935e+00 4.882080000000000197e+00 7.113577810791778866e+00 8.917751824328306043e+00 2.311850000000000183e+00 8.414148578908138276e+00 6.241577238147273832e+00 2.311850000000000183e+00 1.038158941078833664e+01 1.070743735656237661e+01 4.882089999999999819e+00 2.842769352550593265e+00 1.338361219831175042e+01 4.882080000000000197e+00 1.393313074399556983e+00 1.427011605472104172e+01 2.311850000000000183e+00 2.693882879248457485e+00 1.159393151504234254e+01 2.311850000000000183e+00 4.143340120666952231e+00 1.070743761213071821e+01 4.882089999999999819e+00 5.961894479245014367e+00 1.338361704727641488e+01 4.882080000000000197e+00 4.512437237826518732e+00 1.427011095018803921e+01 2.311850000000000183e+00 5.813008005942879031e+00 1.159393636400700700e+01 2.311850000000000183e+00 7.262464284093915090e+00 1.070743250759771392e+01 4.882089999999999819e+00 9.081018642671976338e+00 1.338361194274341059e+01 4.882080000000000197e+00 7.631562364520939390e+00 1.427011579915270190e+01 2.311850000000000183e+00 8.932133132637300577e+00 1.159394121297166969e+01 2.311850000000000183e+00 9.345621266597474275e+00 2.719360411252917231e-03 1.210421999999999976e+01 1.806801208359730904e+00 2.678894202160626126e+00 1.210421999999999976e+01 3.573449302086946777e-01 3.565398058569918316e+00 9.533979999999999677e+00 1.657915698325054699e+00 8.892234723888856607e-01 9.533979999999999677e+00 3.107371976476090314e+00 2.719615979593364638e-03 1.210421999999999976e+01 4.925926335054152005e+00 2.678899051125289255e+00 1.210421999999999976e+01 3.476469093635656815e+00 3.565392954036914919e+00 9.533979999999999677e+00 4.777039861752016670e+00 8.892183678558819304e-01 9.533979999999999677e+00 6.226496139903052729e+00 2.714511446589761446e-03 1.210421999999999976e+01 8.045050498481113976e+00 2.678893946592285857e+00 1.210421999999999976e+01 6.595594220330077917e+00 3.565397803001577604e+00 9.533979999999999677e+00 7.896164988446437327e+00 8.892232168205451703e-01 9.533979999999999677e+00 9.863604857059176112e+00 5.355073381737981641e+00 1.210421999999999976e+01 2.324785762088891428e+00 8.031258176985021535e+00 1.210421999999999976e+01 8.753285206703961263e-01 8.917752079896645867e+00 9.533979999999999677e+00 2.175899288786756092e+00 6.241577493715614544e+00 9.533979999999999677e+00 3.625355566937791707e+00 5.355073637306321466e+00 1.210421999999999976e+01 5.443909925515852954e+00 8.031253072452017250e+00 1.210421999999999976e+01 3.994453647364817339e+00 8.917756928861310328e+00 9.533979999999999677e+00 5.295024415481178082e+00 6.241582342680278117e+00 9.533979999999999677e+00 6.744480693632213253e+00 5.355078486270985039e+00 1.210421999999999976e+01 8.563035052210274500e+00 8.031257921416679935e+00 1.210421999999999976e+01 7.113577810791778866e+00 8.917751824328306043e+00 9.533979999999999677e+00 8.414148578908138276e+00 6.241577238147273832e+00 9.533979999999999677e+00 1.038158941078833664e+01 1.070743735656237661e+01 1.210421999999999976e+01 2.842769352550593265e+00 1.338361219831175042e+01 1.210421999999999976e+01 1.393313074399556983e+00 1.427011605472104172e+01 9.533979999999999677e+00 2.693882879248457485e+00 1.159393151504234254e+01 9.533979999999999677e+00 4.143340120666952231e+00 1.070743761213071821e+01 1.210421999999999976e+01 5.961894479245014367e+00 1.338361704727641488e+01 1.210421999999999976e+01 4.512437237826518732e+00 1.427011095018803921e+01 9.533979999999999677e+00 5.813008005942879031e+00 1.159393636400700700e+01 9.533979999999999677e+00 7.262464284093915090e+00 1.070743250759771392e+01 1.210421999999999976e+01 9.081018642671976338e+00 1.338361194274341059e+01 1.210421999999999976e+01 7.631562364520939390e+00 1.427011579915270190e+01 9.533979999999999677e+00 8.932133132637300577e+00 1.159394121297166969e+01 9.533979999999999677e+00 9.345621266597474275e+00 2.719360411252917231e-03 1.932635000000000147e+01 1.806801208359730904e+00 2.678894202160626126e+00 1.932635000000000147e+01 3.573449302086946777e-01 3.565398058569918316e+00 1.675610999999999962e+01 1.657915698325054699e+00 8.892234723888856607e-01 1.675610999999999962e+01 3.107371976476090314e+00 2.719615979593364638e-03 1.932635000000000147e+01 4.925926335054152005e+00 2.678899051125289255e+00 1.932635000000000147e+01 3.476469093635656815e+00 3.565392954036914919e+00 1.675610999999999962e+01 4.777039861752016670e+00 8.892183678558819304e-01 1.675610999999999962e+01 6.226496139903052729e+00 2.714511446589761446e-03 1.932635000000000147e+01 8.045050498481113976e+00 2.678893946592285857e+00 1.932635000000000147e+01 6.595594220330077917e+00 3.565397803001577604e+00 1.675610999999999962e+01 7.896164988446437327e+00 8.892232168205451703e-01 1.675610999999999962e+01 9.863604857059176112e+00 5.355073381737981641e+00 1.932635000000000147e+01 2.324785762088891428e+00 8.031258176985021535e+00 1.932635000000000147e+01 8.753285206703961263e-01 8.917752079896645867e+00 1.675610999999999962e+01 2.175899288786756092e+00 6.241577493715614544e+00 1.675610999999999962e+01 3.625355566937791707e+00 5.355073637306321466e+00 1.932635000000000147e+01 5.443909925515852954e+00 8.031253072452017250e+00 1.932635000000000147e+01 3.994453647364817339e+00 8.917756928861310328e+00 1.675610999999999962e+01 5.295024415481178082e+00 6.241582342680278117e+00 1.675610999999999962e+01 6.744480693632213253e+00 5.355078486270985039e+00 1.932635000000000147e+01 8.563035052210274500e+00 8.031257921416679935e+00 1.932635000000000147e+01 7.113577810791778866e+00 8.917751824328306043e+00 1.675610999999999962e+01 8.414148578908138276e+00 6.241577238147273832e+00 1.675610999999999962e+01 1.038158941078833664e+01 1.070743735656237661e+01 1.932635000000000147e+01 2.842769352550593265e+00 1.338361219831175042e+01 1.932635000000000147e+01 1.393313074399556983e+00 1.427011605472104172e+01 1.675610999999999962e+01 2.693882879248457485e+00 1.159393151504234254e+01 1.675610999999999962e+01 4.143340120666952231e+00 1.070743761213071821e+01 1.932635000000000147e+01 5.961894479245014367e+00 1.338361704727641488e+01 1.932635000000000147e+01 4.512437237826518732e+00 1.427011095018803921e+01 1.675610999999999962e+01 5.813008005942879031e+00 1.159393636400700700e+01 1.675610999999999962e+01 7.262464284093915090e+00 1.070743250759771392e+01 1.932635000000000147e+01 9.081018642671976338e+00 1.338361194274341059e+01 1.932635000000000147e+01 7.631562364520939390e+00 1.427011579915270190e+01 1.675610999999999962e+01 8.932133132637300577e+00 1.159394121297166969e+01 1.675610999999999962e+01 1.727584841731630849e-01 1.784085149606428056e+00 3.596909999999999830e+00 9.656621109949124815e+00 3.574039228182165573e+00 5.930740000000000123e+00 1.864895271542194699e+00 2.670318310198161349e+00 1.263109999999999955e+00 5.643245034258349557e-01 5.346492896379193560e+00 1.263109999999999955e+00 1.991323759516350211e+00 4.460273574982331901e+00 3.596909999999999830e+00 1.599816497982219810e+00 8.978500951071431979e-01 5.930740000000000123e+00 3.291882647600124834e+00 1.784080045073424658e+00 3.596909999999999830e+00 3.418371819827739966e+00 3.574039483750505841e+00 5.930740000000000123e+00 4.984020398236616245e+00 2.670323159162824478e+00 1.263109999999999955e+00 3.683449630120255947e+00 5.346497745343857133e+00 1.263109999999999955e+00 5.110447922943312626e+00 4.460268470449327616e+00 3.596909999999999830e+00 4.718941624676640245e+00 8.978549440718065489e-01 5.930740000000000123e+00 6.411017727792213350e+00 1.784083930770628212e+00 3.596909999999999830e+00 6.537495983254702381e+00 3.574034379217502444e+00 5.930740000000000123e+00 8.103144561663576440e+00 2.670318054629821081e+00 1.263109999999999955e+00 6.802573793547217917e+00 5.346492640810853736e+00 1.263109999999999955e+00 8.229573049637734172e+00 4.460273319413991189e+00 3.596909999999999830e+00 7.838065788103603104e+00 8.978498395388029296e-01 5.930740000000000123e+00 6.907420746348645890e-01 7.136439170933156717e+00 3.596909999999999830e+00 1.017460470041082488e+01 8.926393249508894456e+00 5.930740000000000123e+00 2.382878862003896092e+00 8.022672331524889344e+00 1.263109999999999955e+00 1.082309057154995813e+00 1.069885687120359030e+01 1.263109999999999955e+00 2.509307349978052049e+00 9.812627596309059896e+00 3.596909999999999830e+00 2.117801051711380556e+00 6.250214069931539385e+00 5.930740000000000123e+00 3.809867201329285358e+00 7.136444019897820290e+00 3.596909999999999830e+00 3.936355410289441803e+00 8.926393505077234281e+00 5.930740000000000123e+00 5.502003988698317194e+00 8.022677180489552029e+00 1.263109999999999955e+00 4.201433220581957784e+00 1.069885176667058602e+01 1.263109999999999955e+00 5.628431513405013575e+00 9.812622491776057387e+00 3.596909999999999830e+00 5.236925215138342082e+00 6.250208965398535099e+00 5.930740000000000123e+00 6.929001318253914299e+00 7.136437952097356430e+00 3.596909999999999830e+00 7.055480536983863793e+00 8.926398354041896965e+00 5.930740000000000123e+00 8.621128152125278277e+00 8.022672075956551296e+00 1.263109999999999955e+00 7.320558347276379330e+00 1.069885661563524870e+01 1.263109999999999955e+00 8.747556640099436009e+00 9.812627340740720072e+00 3.596909999999999830e+00 8.356050341832764516e+00 6.250213814363198672e+00 5.930740000000000123e+00 1.208726628364025224e+00 1.248880314575755257e+01 3.596909999999999830e+00 1.069258925413998718e+01 1.427875722433329031e+01 5.930740000000000123e+00 2.900863415733056616e+00 1.337503630634928520e+01 1.263109999999999955e+00 1.600292647616697206e+00 1.605121089253031741e+01 1.263109999999999955e+00 3.027290940439753442e+00 1.516498161763578878e+01 3.596909999999999830e+00 2.635784642173081949e+00 1.160256809125826649e+01 5.930740000000000123e+00 4.327850791790987195e+00 1.248879804122454829e+01 3.596909999999999830e+00 4.454339964018602771e+00 1.427875747990163013e+01 5.930740000000000123e+00 6.019987579160019031e+00 1.337503120181628269e+01 1.263109999999999955e+00 4.719416811043659621e+00 1.605120578799731490e+01 1.263109999999999955e+00 6.146416067134174988e+00 1.516498646660045146e+01 3.596909999999999830e+00 5.754909768867502606e+00 1.160257294022292918e+01 5.930740000000000123e+00 7.446985871983075711e+00 1.248880192692175228e+01 3.596909999999999830e+00 7.573464127445564742e+00 1.427875237536862585e+01 5.930740000000000123e+00 9.139112705854438801e+00 1.337503605078094537e+01 1.263109999999999955e+00 7.838541937738080279e+00 1.605121063696197581e+01 1.263109999999999955e+00 9.265540230561136070e+00 1.516498136206744896e+01 3.596909999999999830e+00 8.874033932294466354e+00 1.160256783568992667e+01 5.930740000000000123e+00 1.727584841731630849e-01 1.784085149606428056e+00 1.081903999999999932e+01 9.656621109949124815e+00 3.574039228182165573e+00 1.315287000000000006e+01 1.864895271542194699e+00 2.670318310198161349e+00 8.485239999999999227e+00 5.643245034258349557e-01 5.346492896379193560e+00 8.485239999999999227e+00 1.991323759516350211e+00 4.460273574982331901e+00 1.081903999999999932e+01 1.599816497982219810e+00 8.978500951071431979e-01 1.315287000000000006e+01 3.291882647600124834e+00 1.784080045073424658e+00 1.081903999999999932e+01 3.418371819827739966e+00 3.574039483750505841e+00 1.315287000000000006e+01 4.984020398236616245e+00 2.670323159162824478e+00 8.485239999999999227e+00 3.683449630120255947e+00 5.346497745343857133e+00 8.485239999999999227e+00 5.110447922943312626e+00 4.460268470449327616e+00 1.081903999999999932e+01 4.718941624676640245e+00 8.978549440718065489e-01 1.315287000000000006e+01 6.411017727792213350e+00 1.784083930770628212e+00 1.081903999999999932e+01 6.537495983254702381e+00 3.574034379217502444e+00 1.315287000000000006e+01 8.103144561663576440e+00 2.670318054629821081e+00 8.485239999999999227e+00 6.802573793547217917e+00 5.346492640810853736e+00 8.485239999999999227e+00 8.229573049637734172e+00 4.460273319413991189e+00 1.081903999999999932e+01 7.838065788103603104e+00 8.978498395388029296e-01 1.315287000000000006e+01 6.907420746348645890e-01 7.136439170933156717e+00 1.081903999999999932e+01 1.017460470041082488e+01 8.926393249508894456e+00 1.315287000000000006e+01 2.382878862003896092e+00 8.022672331524889344e+00 8.485239999999999227e+00 1.082309057154995813e+00 1.069885687120359030e+01 8.485239999999999227e+00 2.509307349978052049e+00 9.812627596309059896e+00 1.081903999999999932e+01 2.117801051711380556e+00 6.250214069931539385e+00 1.315287000000000006e+01 3.809867201329285358e+00 7.136444019897820290e+00 1.081903999999999932e+01 3.936355410289441803e+00 8.926393505077234281e+00 1.315287000000000006e+01 5.502003988698317194e+00 8.022677180489552029e+00 8.485239999999999227e+00 4.201433220581957784e+00 1.069885176667058602e+01 8.485239999999999227e+00 5.628431513405013575e+00 9.812622491776057387e+00 1.081903999999999932e+01 5.236925215138342082e+00 6.250208965398535099e+00 1.315287000000000006e+01 6.929001318253914299e+00 7.136437952097356430e+00 1.081903999999999932e+01 7.055480536983863793e+00 8.926398354041896965e+00 1.315287000000000006e+01 8.621128152125278277e+00 8.022672075956551296e+00 8.485239999999999227e+00 7.320558347276379330e+00 1.069885661563524870e+01 8.485239999999999227e+00 8.747556640099436009e+00 9.812627340740720072e+00 1.081903999999999932e+01 8.356050341832764516e+00 6.250213814363198672e+00 1.315287000000000006e+01 1.208726628364025224e+00 1.248880314575755257e+01 1.081903999999999932e+01 1.069258925413998718e+01 1.427875722433329031e+01 1.315287000000000006e+01 2.900863415733056616e+00 1.337503630634928520e+01 8.485239999999999227e+00 1.600292647616697206e+00 1.605121089253031741e+01 8.485239999999999227e+00 3.027290940439753442e+00 1.516498161763578878e+01 1.081903999999999932e+01 2.635784642173081949e+00 1.160256809125826649e+01 1.315287000000000006e+01 4.327850791790987195e+00 1.248879804122454829e+01 1.081903999999999932e+01 4.454339964018602771e+00 1.427875747990163013e+01 1.315287000000000006e+01 6.019987579160019031e+00 1.337503120181628269e+01 8.485239999999999227e+00 4.719416811043659621e+00 1.605120578799731490e+01 8.485239999999999227e+00 6.146416067134174988e+00 1.516498646660045146e+01 1.081903999999999932e+01 5.754909768867502606e+00 1.160257294022292918e+01 1.315287000000000006e+01 7.446985871983075711e+00 1.248880192692175228e+01 1.081903999999999932e+01 7.573464127445564742e+00 1.427875237536862585e+01 1.315287000000000006e+01 9.139112705854438801e+00 1.337503605078094537e+01 8.485239999999999227e+00 7.838541937738080279e+00 1.605121063696197581e+01 8.485239999999999227e+00 9.265540230561136070e+00 1.516498136206744896e+01 1.081903999999999932e+01 8.874033932294466354e+00 1.160256783568992667e+01 1.315287000000000006e+01 1.727584841731630849e-01 1.784085149606428056e+00 1.804118000000000066e+01 9.656621109949124815e+00 3.574039228182165573e+00 2.037500000000000000e+01 1.864895271542194699e+00 2.670318310198161349e+00 1.570738000000000056e+01 5.643245034258349557e-01 5.346492896379193560e+00 1.570738000000000056e+01 1.991323759516350211e+00 4.460273574982331901e+00 1.804117000000000104e+01 1.599816497982219810e+00 8.978500951071431979e-01 2.037500999999999962e+01 3.291882647600124834e+00 1.784080045073424658e+00 1.804118000000000066e+01 3.418371819827739966e+00 3.574039483750505841e+00 2.037500000000000000e+01 4.984020398236616245e+00 2.670323159162824478e+00 1.570738000000000056e+01 3.683449630120255947e+00 5.346497745343857133e+00 1.570738000000000056e+01 5.110447922943312626e+00 4.460268470449327616e+00 1.804117000000000104e+01 4.718941624676640245e+00 8.978549440718065489e-01 2.037500999999999962e+01 6.411017727792213350e+00 1.784083930770628212e+00 1.804118000000000066e+01 6.537495983254702381e+00 3.574034379217502444e+00 2.037500000000000000e+01 8.103144561663576440e+00 2.670318054629821081e+00 1.570738000000000056e+01 6.802573793547217917e+00 5.346492640810853736e+00 1.570738000000000056e+01 8.229573049637734172e+00 4.460273319413991189e+00 1.804117000000000104e+01 7.838065788103603104e+00 8.978498395388029296e-01 2.037500999999999962e+01 6.907420746348645890e-01 7.136439170933156717e+00 1.804118000000000066e+01 1.017460470041082488e+01 8.926393249508894456e+00 2.037500000000000000e+01 2.382878862003896092e+00 8.022672331524889344e+00 1.570738000000000056e+01 1.082309057154995813e+00 1.069885687120359030e+01 1.570738000000000056e+01 2.509307349978052049e+00 9.812627596309059896e+00 1.804117000000000104e+01 2.117801051711380556e+00 6.250214069931539385e+00 2.037500999999999962e+01 3.809867201329285358e+00 7.136444019897820290e+00 1.804118000000000066e+01 3.936355410289441803e+00 8.926393505077234281e+00 2.037500000000000000e+01 5.502003988698317194e+00 8.022677180489552029e+00 1.570738000000000056e+01 4.201433220581957784e+00 1.069885176667058602e+01 1.570738000000000056e+01 5.628431513405013575e+00 9.812622491776057387e+00 1.804117000000000104e+01 5.236925215138342082e+00 6.250208965398535099e+00 2.037500999999999962e+01 6.929001318253914299e+00 7.136437952097356430e+00 1.804118000000000066e+01 7.055480536983863793e+00 8.926398354041896965e+00 2.037500000000000000e+01 8.621128152125278277e+00 8.022672075956551296e+00 1.570738000000000056e+01 7.320558347276379330e+00 1.069885661563524870e+01 1.570738000000000056e+01 8.747556640099436009e+00 9.812627340740720072e+00 1.804117000000000104e+01 8.356050341832764516e+00 6.250213814363198672e+00 2.037500999999999962e+01 1.208726628364025224e+00 1.248880314575755257e+01 1.804118000000000066e+01 1.069258925413998718e+01 1.427875722433329031e+01 2.037500000000000000e+01 2.900863415733056616e+00 1.337503630634928520e+01 1.570738000000000056e+01 1.600292647616697206e+00 1.605121089253031741e+01 1.570738000000000056e+01 3.027290940439753442e+00 1.516498161763578878e+01 1.804117000000000104e+01 2.635784642173081949e+00 1.160256809125826649e+01 2.037500999999999962e+01 4.327850791790987195e+00 1.248879804122454829e+01 1.804118000000000066e+01 4.454339964018602771e+00 1.427875747990163013e+01 2.037500000000000000e+01 6.019987579160019031e+00 1.337503120181628269e+01 1.570738000000000056e+01 4.719416811043659621e+00 1.605120578799731490e+01 1.570738000000000056e+01 6.146416067134174988e+00 1.516498646660045146e+01 1.804117000000000104e+01 5.754909768867502606e+00 1.160257294022292918e+01 2.037500999999999962e+01 7.446985871983075711e+00 1.248880192692175228e+01 1.804118000000000066e+01 7.573464127445564742e+00 1.427875237536862585e+01 2.037500000000000000e+01 9.139112705854438801e+00 1.337503605078094537e+01 1.570738000000000056e+01 7.838541937738080279e+00 1.605121063696197581e+01 1.570738000000000056e+01 9.265540230561136070e+00 1.516498136206744896e+01 1.804117000000000104e+01 8.874033932294466354e+00 1.160256783568992667e+01 2.037500999999999962e+01