-2.813798118310000064e+03
-2.813761276780000117e+03
-2.813650178809999943e+03
-2.813465593549999994e+03
-2.813208771399999932e+03
