1.156203458825127430e-04 -3.105816086280836275e-04 2.333000000000000004e-03 -5.877687213737103466e-04 5.913678467542125144e-04 2.671000000000000197e-03 -6.635765134143595603e-04 3.374895714608710357e-04 -3.341999999999999919e-03 1.079804462375437895e-04 3.994561593345894324e-04 -3.209000000000000047e-03 -7.542194225634835363e-04 -3.811207979473247892e-04 2.458999999999999814e-03 -4.331053979096867890e-04 1.132462551323083798e-04 2.964000000000000055e-03 7.682517635735128638e-04 8.167950953367602305e-04 -2.713000000000000134e-03 -2.610042992540186025e-04 8.430621304334092988e-04 -2.812999999999999962e-03 -9.894111872073777913e-04 -4.548082042233709751e-04 2.307000000000000023e-03 2.754870697460349432e-04 -4.976820674630849737e-05 2.350999999999999791e-03 -3.479843175258619074e-04 1.127764565304327938e-03 -2.664999999999999834e-03 8.270740458477272156e-04 9.366864591126914915e-04 -3.226000000000000135e-03 6.094075227197609236e-05 -1.385143483994551552e-04 2.560000000000000209e-03 -8.238616642760518676e-04 -3.221381041359345468e-04 2.814999999999999794e-03 -1.998708136665762502e-04 7.376833045719963580e-04 -2.190999999999999805e-03 2.493851557800466569e-04 7.082711656396594412e-04 -2.854000000000000200e-03 -2.376313770104814568e-04 1.606372580072955010e-04 2.475999999999999902e-03 -3.689215387601126679e-04 4.976844621716365743e-05 2.507999999999999813e-03 1.103652392988268985e-03 7.320931603636708683e-04 -2.837000000000000112e-03 4.446346803508240304e-04 8.571557624080471376e-04 -3.432000000000000155e-03 1.261944230498671628e-05 3.795494034719473883e-04 2.720000000000000195e-03 -7.396096000196206990e-04 -1.263433399859956619e-04 2.696000000000000046e-03 -3.525135903511295715e-04 3.335073741579876638e-04 -2.847000000000000138e-03 3.846893576691411739e-04 1.026718607066270982e-03 -3.641000000000000139e-03 4.273563588129347196e-05 -7.747687026346315546e-05 2.870000000000000155e-03 1.226205151456190214e-04 -7.214713622468334729e-05 2.837000000000000112e-03 3.933903681680230588e-04 9.193813236261802555e-04 -2.886000000000000110e-03 -5.002223102638332977e-05 8.326906847102008352e-04 -1.845999999999999985e-03 4.001942918764540879e-04 -2.456919387149352407e-04 2.599999999999999881e-03 -3.488878904928607470e-04 -6.463986694505500759e-04 2.439000000000000196e-03 7.741288126055323546e-04 1.313538953169622820e-03 -3.540000000000000178e-03 -5.863567007284699404e-04 3.048996876200821531e-04 -2.844000000000000174e-03 -9.119641641900349659e-04 4.700323002019872942e-04 2.432999999999999833e-03 -1.071127871116626322e-04 -1.101946043922824738e-04 2.253999999999999927e-03 -3.321556865939351831e-04 8.760694035653290943e-04 -2.778999999999999786e-03 5.148222414661722101e-04 5.961812305765305147e-04 -1.987000000000000051e-03 -3.651980753307889791e-04 -3.685354335402329234e-04 2.366000000000000048e-03 -6.584393530438092772e-04 2.867588156678882883e-04 2.477000000000000035e-03 -2.994392296430100969e-04 2.279038124972917263e-04 -3.271000000000000036e-03 2.380175620539795925e-04 1.859371941110222917e-04 -3.054999999999999990e-03 -5.885734132389968450e-04 -1.851657020838283507e-04 2.154000000000000099e-03 -1.834340557185117331e-04 -2.655653350922479450e-04 2.995999999999999965e-03 8.499983745525004812e-04 6.129728894968417821e-04 -2.909999999999999826e-03 -2.407124758785358725e-04 6.582480565534737675e-04 -2.805000000000000202e-03 -6.581518894547867815e-04 -3.020067721212461257e-04 2.425000000000000072e-03 1.519657754600605034e-04 -6.617155001122631284e-04 2.739999999999999814e-03 -6.704467569753573943e-04 6.817522615006320081e-04 -2.472999999999999938e-03 7.448439651958970809e-04 4.192009870113061801e-04 -2.846000000000000005e-03 6.594814658765465250e-05 -7.096526206262140099e-04 2.452999999999999885e-03 -9.409913952567680335e-04 -1.309663852013989824e-04 2.821999999999999856e-03 1.040969703891360171e-04 1.023733276178811786e-03 -3.350000000000000113e-03 2.604303299593940888e-04 7.082069212011705365e-04 -3.762999999999999852e-03 -6.142350353225331234e-05 -3.024899224996152407e-04 2.392000000000000029e-03 -4.724060716577181468e-04 -4.369786563349411650e-05 2.706000000000000072e-03 6.675292625892143006e-04 1.011402335169886424e-03 -3.706999999999999792e-03 4.000792133673652283e-05 4.964547977714722695e-04 -3.716999999999999818e-03 -1.335061558475927304e-04 -3.206307944518091055e-04 2.959999999999999958e-03 -5.114493685337024448e-04 -7.371746584439915747e-07 2.750999999999999973e-03 -8.222688770709474400e-05 7.283074480863180279e-04 -3.557999999999999965e-03 8.866667824420963956e-04 1.002250975012636269e-03 -4.209000000000000068e-03 3.532007291751573542e-05 4.687776577964241297e-04 3.158000000000000217e-03 -3.802234512225600299e-04 9.908646295234043713e-05 2.814000000000000095e-03 3.218210327716467456e-04 7.404432610712253192e-04 -3.152999999999999987e-03 -2.583706763940708069e-04 1.140190156763191097e-03 -2.686000000000000019e-03 -3.393797934201408443e-05 9.571422860881774724e-05 2.586000000000000191e-03 -1.374229113577114922e-04 -1.534761982653029305e-04 2.050999999999999872e-03 7.429838299536028166e-04 1.251249386983856052e-03 -3.922000000000000139e-03 -5.934836825725675960e-04 6.984161499565311225e-04 -3.661000000000000192e-03 -5.238407224474338252e-04 9.197368631873741084e-04 2.380999999999999870e-03 1.187361612374090135e-04 2.095369275679206055e-04 2.247999999999999998e-03 -1.701705725562695454e-04 8.473322702670254593e-04 -3.165999999999999977e-03 8.275558392245838156e-04 1.003952853955450853e-03 -2.841000000000000209e-03 -3.666657194637325549e-05 3.270528435921348800e-04 2.507999999999999813e-03 -7.370397426564512982e-04 3.466084501925942351e-04 2.696000000000000046e-03 -7.360443928897764197e-04 3.465121234466703041e-04 -3.056000000000000123e-03 -2.206777899042449743e-04 3.669636399467635936e-04 -2.980000000000000010e-03 -8.501247081917815383e-04 2.058469832711630118e-04 2.690999999999999816e-03 -8.226024719242408382e-05 2.400401044239093107e-04 3.017000000000000150e-03 9.705325818314111458e-04 8.203264640395647143e-04 -2.442000000000000160e-03 6.884249891162161317e-05 1.095462783641509060e-03 -2.896000000000000137e-03 -6.801766363734801715e-04 2.386288820148527081e-04 2.480000000000000000e-03 9.882812819687280495e-05 -1.934192365746035885e-04 2.700000000000000143e-03 -5.463807020519317360e-04 8.736939558136122162e-04 -2.242000000000000069e-03 8.377977583637756824e-04 7.879618747633877025e-04 -3.289999999999999956e-03 -1.533495453315482544e-04 -5.568176693915229299e-04 2.101000000000000003e-03 -4.314369582758199634e-04 -3.470549683172802148e-04 1.979999999999999989e-03 7.102601158405602816e-05 1.159550475692395707e-03 -2.668999999999999932e-03 1.405394451251732292e-04 9.538981415035403377e-04 -2.945999999999999834e-03 3.686326383459591848e-04 -2.160967251249565932e-05 2.122999999999999887e-03 -3.231043250690544670e-04 -3.384502845643223693e-04 2.357000000000000154e-03 7.117100391302225550e-04 1.042290180420624157e-03 -2.913999999999999924e-03 2.315973488568767345e-04 7.320953954249857136e-04 -2.863000000000000093e-03 -3.301993842529538244e-04 -1.727329264993106812e-05 2.700999999999999842e-03 -1.139098719721447651e-03 -3.509061223873976925e-04 2.037000000000000182e-03 -1.861935332760303471e-04 4.429954493741304188e-04 -2.704999999999999939e-03 6.148724508194626298e-04 1.173227117493994562e-03 -3.449999999999999942e-03 1.643289584236576199e-04 -4.604338631547222587e-05 2.145000000000000205e-03 2.443443221554203318e-05 7.599972711993169044e-05 2.629999999999999959e-03 3.961508834325806229e-04 6.157032382208053834e-04 -3.784000000000000037e-03 -3.086206765172359585e-04 7.974366921743967921e-04 -2.807000000000000033e-03 3.468299132235236532e-04 -5.479571254152673220e-04 2.161999999999999859e-03 -4.039531902051851794e-04 -6.340369233120840553e-04 2.331999999999999872e-03 2.977403041740756895e-04 8.653436954588210371e-04 -4.037999999999999923e-03 -8.092192804830433857e-04 1.094584674408774901e-04 -3.243999999999999922e-03 -1.027907248913740744e-03 1.336364008441747668e-04 2.076999999999999853e-03 4.463048761042953677e-05 1.082040645061695263e-04 1.940000000000000101e-03 2.624212689635989381e-04 8.014487367234003450e-04 -3.484999999999999817e-03 1.124522416310150827e-03 6.466856540978623870e-04 -2.847000000000000138e-03 4.513112327129348896e-04 1.060196737739328487e-04 2.320000000000000014e-04 1.163475746346449673e-02 -6.741085948595908379e-03 -7.290000000000000473e-04 -1.090965856541617311e-02 7.703715985551490113e-03 1.472000000000000001e-03 -1.090047895448516962e-02 6.417852176766455571e-03 1.912999999999999987e-03 3.696598309492140516e-04 -1.251902926851699226e-04 6.470000000000000057e-04 1.164332790967232377e-02 -7.680278978516701278e-03 -1.203000000000000076e-03 5.466388771601626536e-04 -3.623409140258338108e-04 7.299999999999999903e-05 1.130121936400058612e-02 -6.554087723454591480e-03 -1.061000000000000094e-03 -1.088419733971546753e-02 7.520410977475284683e-03 1.237999999999999951e-03 -1.051662661045960588e-02 6.584652590393281005e-03 1.412999999999999977e-03 1.835611875939767294e-04 -2.418063076288310548e-04 9.219999999999999680e-04 1.072750995723276493e-02 -7.530364076023940943e-03 -6.989999999999999686e-04 -1.111257097204685696e-04 1.182542880369340222e-04 6.700000000000000226e-05 1.054035451349900725e-02 -6.567860133236785337e-03 -9.520000000000000467e-04 -1.087080832115012823e-02 7.503040480019627229e-03 1.255000000000000039e-03 -1.162011563843681761e-02 6.954668759139873147e-03 1.668999999999999911e-03 3.936443924480979048e-04 -1.887964308300554145e-04 7.709999999999999840e-04 1.131710888677902975e-02 -8.102820277211332176e-03 -1.150999999999999896e-03 4.187855933106348575e-04 3.984503526739061329e-05 2.285999999999999838e-03 1.111335355955700606e-02 -7.145742554856115980e-03 -1.097000000000000102e-03 -1.116097344905943312e-02 5.729744904390631118e-03 2.601000000000000013e-03 -1.062598683538771606e-02 6.523904411789534404e-03 3.203999999999999817e-03 6.312370617908182990e-05 -2.924404173814162521e-04 2.681999999999999922e-03 1.079025099060755728e-02 -6.799006733317201900e-03 -1.325000000000000006e-03 5.684735249427965917e-04 9.166706845488020738e-05 2.028999999999999988e-03 1.098521001829181297e-02 -7.244859822937997455e-03 -1.494000000000000102e-03 -1.071698257009500929e-02 5.946986933925429639e-03 2.700000000000000143e-03 -1.016575025549470816e-02 6.358803562220590073e-03 2.601000000000000013e-03 2.372458305559304779e-04 -2.580531260880727126e-04 2.164999999999999824e-03 1.118514850881246678e-02 -6.632270564128866022e-03 -1.227999999999999925e-03 3.332697867561446590e-05 -4.653743788525053094e-04 1.466999999999999988e-03 1.091858646695203355e-02 -6.978202172744204547e-03 -1.663999999999999898e-03 -1.143013359905679059e-02 6.415862834234618492e-03 2.873000000000000120e-03 -1.146981830261062374e-02 6.753254482477197285e-03 3.105999999999999820e-03 4.385941864841300542e-04 -7.728422475397706210e-04 2.122000000000000188e-03 1.139905254154887672e-02 -6.591686518259808579e-03 -1.446000000000000020e-03 4.472317507807070549e-04 -5.797764751122829038e-04 3.030000000000000141e-03 1.224866002146439425e-02 -8.162832638158146192e-03 -6.880000000000000265e-04 -1.113736948495076297e-02 7.499701924455907769e-03 2.262000000000000122e-03 -1.084107623720323953e-02 7.509205152287905943e-03 1.951999999999999959e-03 2.527528401773214005e-04 -7.206982737472717891e-04 1.802999999999999915e-03 1.111290400813482078e-02 -7.160769128102163414e-03 -7.200000000000000453e-04 7.351767337638952758e-04 -6.357736783889772220e-04 2.905000000000000030e-03 1.154652120631472281e-02 -8.026564210926392592e-03 -7.249999999999999500e-04 -1.130009392888456712e-02 7.198978205161214380e-03 2.343000000000000031e-03 -1.111216340106078830e-02 7.988547148770241274e-03 1.832999999999999994e-03 1.269547397704872229e-04 -2.142253347524700907e-04 1.815999999999999906e-03 1.104233074091768782e-02 -7.059500110360809703e-03 -5.999999999999999474e-04 7.696139810680366431e-05 -6.373773946426450126e-04 2.164000000000000125e-03 1.068034145509574526e-02 -8.215004224135451227e-03 -7.309999999999999875e-04 -1.119747641652389658e-02 7.252341546107105540e-03 2.491999999999999858e-03 -1.210934529167504575e-02 7.318486497014764329e-03 1.936000000000000004e-03 5.763392779177060323e-04 -1.904023023214196050e-04 1.930999999999999991e-03 1.120707684916162107e-02 -7.205046391036332327e-03 -1.093999999999999920e-03 5.470537120955053191e-04 -1.365043675521969554e-03 1.502000000000000080e-03 1.143626203818947848e-02 -8.055075890012848225e-03 -1.062000000000000010e-03 -1.092427014407964039e-02 6.763752421486924835e-03 1.827999999999999981e-03 -1.079631773965754327e-02 7.452630627124615277e-03 1.105999999999999995e-03 5.443582395056204091e-04 -7.388721858903213747e-04 5.090000000000000123e-04 1.122399516101568566e-02 -8.234463104871895048e-03 -1.719999999999999958e-03 7.837215821758920483e-04 -1.629068900210091375e-03 8.130000000000000291e-04 1.152529803814019739e-02 -7.924043105135263748e-03 -1.536999999999999955e-03 -1.172504611023032078e-02 6.441389501728088385e-03 1.958999999999999804e-03 -1.137102074007243641e-02 7.161636707404426573e-03 9.240000000000000166e-04 5.997556904589517655e-05 -8.959435981788256564e-04 1.000999999999999937e-03 1.128638209165441428e-02 -7.859730038696145782e-03 -1.351999999999999903e-03 -1.834369293687735996e-04 -1.386778963261180641e-03 1.428000000000000016e-03 1.087761352203645178e-02 -8.169796574285662430e-03 -9.420000000000000205e-04 -1.112786857200369524e-02 6.300208809572303142e-03 1.835000000000000043e-03 -1.188863414228547022e-02 7.439790200730409669e-03 1.164000000000000104e-03 7.081092374537341447e-04 -7.908876708058428309e-04 1.319999999999999993e-03 1.126595994345873201e-02 -8.413337242282834319e-03 -1.402000000000000034e-03 6.474281769387382063e-04 4.507313564705497520e-04 4.420000000000000101e-04 1.099635415339649328e-02 -6.216149558454956564e-03 -1.381000000000000066e-03 -1.192514197899065438e-02 7.062552639160637330e-03 1.031999999999999931e-03 -1.068101837649662079e-02 7.180257616613872594e-03 1.716999999999999993e-03 1.159352687962597326e-05 9.814471917197029223e-04 6.200000000000000270e-05 1.069755329713383170e-02 -7.466179977403512164e-03 -1.521999999999999915e-03 3.125089417827468644e-04 4.469755712629357278e-04 2.570000000000000127e-04 1.059602985599431002e-02 -6.584299605187875562e-03 -1.389000000000000044e-03 -1.142708019219716015e-02 7.641267125359204986e-03 8.720000000000000537e-04 -1.091296655532120706e-02 7.368475687850292548e-03 1.565999999999999901e-03 1.197981501511242075e-04 1.154830465142121353e-03 -1.869999999999999917e-04 1.128346132449991809e-02 -7.443513185218022903e-03 -1.203000000000000076e-03 1.561417437854491328e-04 8.736564455001267506e-05 1.410000000000000120e-04 1.103372725451900321e-02 -6.483995132083654987e-03 -1.719999999999999958e-03 -1.086994026290615499e-02 7.948026149985397762e-03 9.959999999999999236e-04 -1.138013754339008317e-02 7.897938876284342144e-03 1.807999999999999928e-03 6.944670726681222150e-04 6.772536341576685997e-04 -2.649999999999999903e-04 1.143269938541542283e-02 -7.531297017295350213e-03 -1.479000000000000063e-03 5.201512570923866059e-04 2.359929442699717573e-04 1.033000000000000064e-03 1.171563513813971003e-02 -7.732486877453215342e-03 -1.381000000000000066e-03 -1.138409013291769890e-02 6.611336615662969166e-03 2.213000000000000123e-03 -1.101497905378685631e-02 5.348910771796144478e-03 2.374999999999999941e-03 1.466340458308210506e-04 -1.360451195965251990e-03 1.119999999999999902e-03 1.042030369606932079e-02 -6.085050852842897699e-03 -1.626000000000000058e-03 5.450026794809677451e-04 1.502001310204674435e-04 5.069999999999999637e-04 1.117422926915431075e-02 -7.606750307481844470e-03 -1.547999999999999897e-03 -1.125202999578962457e-02 6.481009641548959171e-03 2.151000000000000134e-03 -1.132697124623505136e-02 6.080365399132228905e-03 2.039000000000000014e-03 4.135818736166626771e-04 -8.236692502550589353e-04 1.286000000000000034e-03 1.084066283909302861e-02 -5.945895576707303960e-03 -1.337999999999999997e-03 4.272628258936542233e-04 3.143047527629338057e-04 1.999999999999999909e-06 1.121947027848942992e-02 -7.315755030760143739e-03 -1.755999999999999965e-03 -1.117612675506285402e-02 6.393290213557356952e-03 2.317000000000000049e-03 -1.255038707288760186e-02 5.211171108368618451e-03 2.229000000000000078e-03 7.401528440083225387e-04 -8.854138961561377292e-04 1.652999999999999955e-03 1.173946359857680997e-02 -6.064023451281338670e-03 -1.907000000000000058e-03 5.225578292681181411e-04 -3.620197716570083021e-04 4.699999999999999859e-04 1.099452003386663414e-02 -7.761157531251715661e-03 -1.626999999999999974e-03 -1.127145599598245070e-02 6.238754341263271982e-03 1.534999999999999906e-03 -1.112562089471638878e-02 6.344196852797845225e-03 2.040000000000000147e-03 5.192172781139385487e-04 -8.740791829736896303e-04 6.400000000000000524e-04 1.091547312612930684e-02 -6.532831195794738290e-03 -2.477000000000000035e-03 7.163934174268137738e-04 -6.741427678671122045e-04 2.599999999999999772e-04 1.138973933302931882e-02 -7.321181730133794092e-03 -2.066999999999999827e-03 -1.086708765154744717e-02 5.994667795097990450e-03 1.561000000000000104e-03 -1.099966094594725073e-02 6.348081605824147135e-03 1.851999999999999914e-03 3.881841739418808866e-04 -9.096224750417391397e-04 1.296000000000000060e-03 1.059882428950952547e-02 -6.181696585897993729e-03 -2.043000000000000111e-03 8.987021976765420756e-05 -9.911782684721015947e-05 2.840000000000000185e-04 1.040665458662890820e-02 -7.326509149287640556e-03 -1.830000000000000029e-03 -1.112542959822605468e-02 5.816725561251421227e-03 1.301999999999999989e-03 -1.182467741364373083e-02 6.450026826553809968e-03 2.086000000000000180e-03 5.651312974926310821e-04 -1.074433625960345478e-03 1.124999999999999915e-03 1.089617609375517077e-02 -6.566127209693575599e-03 -2.448000000000000089e-03 5.029074125704839898e-04 -4.716366550446021602e-04 7.529999999999999801e-04 1.076934481397370282e-02 -8.291935375878042511e-03 -2.658000000000000206e-03 -1.177256496339333831e-02 6.863931758306139434e-03 1.981999999999999821e-03 -1.051806815905649214e-02 7.877804910090246623e-03 1.111999999999999924e-03 1.916845569117883491e-04 -2.305363976502005177e-04 -7.630000000000000063e-04 1.076478457637165820e-02 -8.640115220546014038e-03 -2.096000000000000207e-03 8.324647515566418890e-04 -4.090909891646824837e-04 9.520000000000000467e-04 1.126756461759582072e-02 -8.697814701883615357e-03 -2.663000000000000003e-03 -1.115210859460778400e-02 6.911385888088958200e-03 2.249999999999999830e-03 -1.121182758501781777e-02 7.695786067961710511e-03 1.296999999999999976e-03 2.662395424900973148e-04 -2.076114303564802850e-04 -3.680000000000000003e-04 1.132975889474270234e-02 -8.325072335241216065e-03 -1.531000000000000026e-03 4.433903284048770451e-05 -8.602714979393249898e-04 6.890000000000000508e-04 1.023940079004621861e-02 -8.452634882733366106e-03 -2.498999999999999919e-03 -1.098755370303056839e-02 7.324455721964551191e-03 2.073999999999999889e-03 -1.099040950733400947e-02 8.032021156664254785e-03 1.644999999999999978e-03 6.331372617023861950e-04 -6.520200977301269510e-04 -1.082000000000000062e-03 1.057733823663328625e-02 -8.428073079171505624e-03 -1.879000000000000028e-03 6.829706707706039662e-04 8.250022251566297568e-06 -1.046999999999999971e-03 1.182236501297622734e-02 -6.691928981986854444e-03 -2.331000000000000173e-03 -1.205777975729980037e-02 7.311486806693368208e-03 6.660000000000000338e-04 -1.140820438064783608e-02 6.185680060378771251e-03 6.970000000000000284e-04 1.404726463308961313e-04 -5.378136882596960166e-05 -4.090000000000000211e-04 1.093724097511766455e-02 -7.086502723643534583e-03 -2.419000000000000143e-03 7.677359721223798485e-04 1.210277279405143329e-05 -7.309999999999999875e-04 1.104204239926886121e-02 -6.813327575623293053e-03 -2.089000000000000145e-03 -1.136055344654501517e-02 7.186745187370581316e-03 6.890000000000000508e-04 -1.140669395784259417e-02 6.709972649133322427e-03 5.450000000000000200e-04 4.193969132715080002e-04 5.340844775298485541e-04 -2.199999999999999943e-05 1.049443825905899998e-02 -7.239560734381522526e-03 -1.907000000000000058e-03 4.128458963124943945e-04 1.549524633490321601e-04 -1.317999999999999944e-03 1.036481933076987758e-02 -6.720661964457002278e-03 -2.243000000000000202e-03 -1.075827027148994371e-02 7.222897324867333380e-03 5.240000000000000517e-04 -1.190950759802294166e-02 6.185970317794436436e-03 5.919999999999999698e-04 7.302672626665083827e-04 5.592564036983080182e-04 -3.289999999999999739e-04 1.076950841845561446e-02 -7.096391577753702155e-03 -2.821999999999999856e-03