1.213800009943563296e+01 9.359940154107361345e-07 1.801417993299999409e+01 3.034500099435660125e+00 2.474939649777346120e-07 1.801417998324999914e+01 6.069000099435650775e+00 4.769939817887350842e-07 1.801417996649999509e+01 9.103500099435642312e+00 7.064939985997356093e-07 1.801417994974999459e+01 1.062074990068310143e+01 2.627950821243999258e+00 1.801417993874999723e+01 1.517249900683128816e+00 2.627950132743948508e+00 1.801417998900000228e+01 4.551749900683120131e+00 2.627950362243965721e+00 1.801417997225000178e+01 7.586249900683110781e+00 2.627950591743982489e+00 1.801417995549999773e+01 9.103499701929814947e+00 5.255910706493984286e+00 1.801417994449998972e+01 -2.980701586161172726e-07 5.255910017993933536e+00 1.801417999474999476e+01 3.034499701929832760e+00 5.255910247493949861e+00 1.801417997799999426e+01 6.068999701929823409e+00 5.255910476993967073e+00 1.801417996124999021e+01 7.586249503177283415e+00 7.883860591743967916e+00 1.801417995024999286e+01 -1.517250496822689865e+00 7.883859903243918055e+00 1.801418000049999790e+01 1.517249503177301229e+00 7.883860132743934379e+00 1.801417998374999740e+01 4.551749503177292766e+00 7.883860362243951592e+00 1.801417996699999691e+01 -1.000003942906613555e-02 1.751970016086225046e+00 1.686146999830519633e+01 3.034499960570925303e+00 1.751970246342544391e+00 1.686146998149999732e+01 6.068999960570915952e+00 1.751970475842561381e+00 1.686146996474999682e+01 9.103499960570907490e+00 1.751970705342578150e+00 1.686146994799999632e+01 -1.517250238181597322e+00 4.379919902092511919e+00 1.686147000400000096e+01 1.517249761818393772e+00 4.379920131592529131e+00 1.686146998725000046e+01 4.551749761818385309e+00 4.379920361092545456e+00 1.686146997049999996e+01 7.586249761818375958e+00 4.379920590592562668e+00 1.686146995374999946e+01 -3.034500436934884693e+00 7.007879787342496058e+00 1.686147000974999699e+01 -4.369348936292667556e-07 7.007880016842512383e+00 1.686146999299999294e+01 3.034499563065097494e+00 7.007880246342529595e+00 1.686146997624999244e+01 6.068999563065088587e+00 7.007880475842545920e+00 1.686146995949999194e+01 -4.551750635687415780e+00 9.635829672592480577e+00 1.686147001550000013e+01 -1.517250635687424687e+00 9.635829902092496013e+00 1.686146999874999608e+01 1.517249364312566406e+00 9.635830131592513226e+00 1.686146998199999558e+01 4.551749364312557944e+00 9.635830361092530438e+00 1.686146996524999508e+01 1.517249940112195050e+00 8.759801159014212191e-01 1.152709990750003355e+00 4.551749940056986965e+00 8.759803453914493110e-01 1.142709974000001960e+00 7.586249940112177015e+00 8.759805749014548670e-01 1.152709957250000361e+00 1.062074994011216944e+01 8.759808044014717465e-01 1.152709940499998975e+00 -2.586410924526745067e-07 3.503940001151405248e+00 1.152709996499996725e+00 3.034499741358898550e+00 3.503940230651422016e+00 1.152709979749995117e+00 6.068999741358890532e+00 3.503940460151438785e+00 1.152709962999993731e+00 9.103499741358881181e+00 3.503940689651455997e+00 1.152709946249992345e+00 -1.517250457393623631e+00 6.131889886401388878e+00 1.152710002249999865e+00 1.517249542606367463e+00 6.131890115901406091e+00 1.152709985499998480e+00 4.551749542606359000e+00 6.131890345401422415e+00 1.152709968749997094e+00 7.586249542606349650e+00 6.131890574901439628e+00 1.152709951999995486e+00 -3.034500656146911002e+00 8.759849771651373018e+00 1.152710007999993236e+00 -6.561469199184986024e-07 8.759850001151390231e+00 1.152709991249991850e+00 3.034499343853071185e+00 8.759850230651407443e+00 1.152709974499990242e+00 6.068999343853062278e+00 8.759850460151422880e+00 1.152709957749988856e+00
1.213800009943563296e+01 9.359940154107361345e-07 1.801417993299999409e+01 -3.034500695575276019e+00 1.051180978849389192e+01 1.801417000625000142e+01 -6.955752849779188914e-07 1.051181001799390913e+01 1.801416998950000092e+01 3.034499204989092647e+00 1.051181022949998756e+01 -2.725000119240300075e-08 1.062074980124743284e+01 2.627950803250051148e+00 -6.125000253749203903e-08 1.517249900683073749e+00 2.627950132743938738e+00 1.801416998900000266e+01 4.551749900683065064e+00 2.627950362243955951e+00 1.801416997225000216e+01 7.586249801247442193e+00 2.627950573750034380e+00 -4.450000108008204022e-08 9.103499602494146359e+00 5.255910688500035732e+00 -5.550000923410886895e-08 -2.980701586161172726e-07 5.255910017993933536e+00 1.801417999474999476e+01 3.034499701929832760e+00 5.255910247493949861e+00 1.801417997799999426e+01 6.068999701929823409e+00 5.255910476993967073e+00 1.801417996124999021e+01 -4.551750496822680958e+00 7.883859673743900842e+00 1.801418001724999840e+01 -1.517250596258358675e+00 7.883859885249969501e+00 4.999984302690526601e-10 1.517249503177301229e+00 7.883860132743934379e+00 1.801417998374999740e+01 4.551749403741624178e+00 7.883860344250003038e+00 -3.300000448455093379e-08 -1.000003942906613555e-02 1.751970016086225046e+00 1.686146999830519633e+01 3.034499960570925303e+00 1.751970246342544391e+00 1.686146998149999732e+01 6.068999960570915952e+00 1.751970475842561381e+00 1.686146996474999682e+01 9.103499960570907490e+00 1.751970705342578150e+00 1.686146994799999632e+01 -1.517250238181597322e+00 4.379919902092511919e+00 1.686147000400000096e+01 1.517249761818393772e+00 4.379920131592529131e+00 1.686146998725000046e+01 4.551749761818385309e+00 4.379920361092545456e+00 1.686146997049999996e+01 7.586249761818375958e+00 4.379920590592562668e+00 1.686146995374999946e+01 -3.034500436934884693e+00 7.007879787342496058e+00 1.686147000974999699e+01 -4.369348936292667556e-07 7.007880016842512383e+00 1.686146999299999294e+01 3.034499563065097494e+00 7.007880246342529595e+00 1.686146997624999244e+01 6.068999563065088587e+00 7.007880475842545920e+00 1.686146995949999194e+01 -4.551750635687415780e+00 9.635829672592480577e+00 1.686147001550000013e+01 -1.517250635687424687e+00 9.635829902092496013e+00 1.686146999874999608e+01 1.517249364312566406e+00 9.635830131592513226e+00 1.686146998199999558e+01 4.551749364312557944e+00 9.635830361092530438e+00 1.686146996524999508e+01 1.517249940112195050e+00 8.759801159014212191e-01 1.152709990750003355e+00 4.551749940056986965e+00 8.759803453914493110e-01 1.142709974000001960e+00 7.586249940112177015e+00 8.759805749014548670e-01 1.152709957250000361e+00 1.062074994011216944e+01 8.759808044014717465e-01 1.152709940499998975e+00 -2.586410924526745067e-07 3.503940001151405248e+00 1.152709996499996725e+00 3.034499741358898550e+00 3.503940230651422016e+00 1.152709979749995117e+00 6.068999741358890532e+00 3.503940460151438785e+00 1.152709962999993731e+00 9.103499741358881181e+00 3.503940689651455997e+00 1.152709946249992345e+00 -1.517250457393623631e+00 6.131889886401388878e+00 1.152710002249999865e+00 1.517249542606367463e+00 6.131890115901406091e+00 1.152709985499998480e+00 4.551749542606359000e+00 6.131890345401422415e+00 1.152709968749997094e+00 7.586249542606349650e+00 6.131890574901439628e+00 1.152709951999995486e+00 -3.034500656146911002e+00 8.759849771651373018e+00 1.152710007999993236e+00 -6.561469199184986024e-07 8.759850001151390231e+00 1.152709991249991850e+00 3.034499343853071185e+00 8.759850230651407443e+00 1.152709974499990242e+00 6.068999343853062278e+00 8.759850460151422880e+00 1.152709957749988856e+00
1.213800009943563296e+01 9.359940154107361345e-07 1.801417993299999409e+01 -3.034500695575276019e+00 1.051180978849389192e+01 1.801417000625000142e+01 -6.955752849779188914e-07 1.051181001799390913e+01 1.801416998950000092e+01 3.034499204989092647e+00 1.051181022949998756e+01 -2.725000119240300075e-08 1.062074980124743284e+01 2.627950803250051148e+00 -6.125000253749203903e-08 1.517249900683073749e+00 2.627950132743938738e+00 1.801416998900000266e+01 4.551749900682308336e+00 2.627960362243956016e+00 1.801416997224999150e+01 7.586249801247442193e+00 2.627950573750034380e+00 -4.450000108008204022e-08 9.103499602494146359e+00 5.255910688500035732e+00 -5.550000923410886895e-08 -2.980701586161172726e-07 5.255910017993933536e+00 1.801417999474999476e+01 3.034499701929832760e+00 5.255910247493949861e+00 1.801417997799999426e+01 6.068999701929823409e+00 5.255910476993967073e+00 1.801417996124999021e+01 -4.551750496822680958e+00 7.883859673743900842e+00 1.801418001724999840e+01 -1.517250596258358675e+00 7.883859885249969501e+00 4.999984302690526601e-10 1.517249503177301229e+00 7.883860132743934379e+00 1.801417998374999740e+01 4.551749403741624178e+00 7.883860344250003038e+00 -3.300000448455093379e-08 -1.000003942906613555e-02 1.751970016086225046e+00 1.686146999830519633e+01 3.034499960570925303e+00 1.751970246342544391e+00 1.686146998149999732e+01 6.068999960570915952e+00 1.751970475842561381e+00 1.686146996474999682e+01 9.103499960570907490e+00 1.751970705342578150e+00 1.686146994799999632e+01 -1.517250238181597322e+00 4.379919902092511919e+00 1.686147000400000096e+01 1.517249761818393772e+00 4.379920131592529131e+00 1.686146998725000046e+01 4.551749761818385309e+00 4.379920361092545456e+00 1.686146997049999996e+01 7.586249761818375958e+00 4.379920590592562668e+00 1.686146995374999946e+01 -3.034500436934884693e+00 7.007879787342496058e+00 1.686147000974999699e+01 -4.369348936292667556e-07 7.007880016842512383e+00 1.686146999299999294e+01 3.034499563065097494e+00 7.007880246342529595e+00 1.686146997624999244e+01 6.068999563065088587e+00 7.007880475842545920e+00 1.686146995949999194e+01 -4.551750635687415780e+00 9.635829672592480577e+00 1.686147001550000013e+01 -1.517250635687424687e+00 9.635829902092496013e+00 1.686146999874999608e+01 1.517249364312566406e+00 9.635830131592513226e+00 1.686146998199999558e+01 4.551749364312557944e+00 9.635830361092530438e+00 1.686146996524999508e+01 1.517249940112195050e+00 8.759801159014212191e-01 1.152709990750003355e+00 4.551749940056986965e+00 8.759803453914493110e-01 1.142709974000001960e+00 7.586249940112177015e+00 8.759805749014548670e-01 1.152709957250000361e+00 1.062074994011216944e+01 8.759808044014717465e-01 1.152709940499998975e+00 -2.586410924526745067e-07 3.503940001151405248e+00 1.152709996499996725e+00 3.034499741358898550e+00 3.503940230651422016e+00 1.152709979749995117e+00 6.068999741358890532e+00 3.503940460151438785e+00 1.152709962999993731e+00 9.103499741358881181e+00 3.503940689651455997e+00 1.152709946249992345e+00 -1.517250457393623631e+00 6.131889886401388878e+00 1.152710002249999865e+00 1.517249542606367463e+00 6.131890115901406091e+00 1.152709985499998480e+00 4.551749542606359000e+00 6.131890345401422415e+00 1.152709968749997094e+00 7.586249542606349650e+00 6.131890574901439628e+00 1.152709951999995486e+00 -3.034500656146911002e+00 8.759849771651373018e+00 1.152710007999993236e+00 -6.561469199184986024e-07 8.759850001151390231e+00 1.152709991249991850e+00 3.034499343853071185e+00 8.759850230651407443e+00 1.152709974499990242e+00 6.068999343853062278e+00 8.759850460151422880e+00 1.152709957749988856e+00
1.213800009943563296e+01 9.359940154107361345e-07 1.801417993299999409e+01 -3.034510695575276085e+00 1.051180978849313519e+01 1.801417000625005826e+01 -6.955752849779188914e-07 1.051181001799390913e+01 1.801416998950000092e+01 3.034499204989092647e+00 1.051181022949998756e+01 -2.725000119240300075e-08 1.062073980124673334e+01 2.627960803249304700e+00 9.938750042672298807e-06 1.517239900683073683e+00 2.627950132743182454e+00 1.801416998900005595e+01 4.551749900682308336e+00 2.627960362243956016e+00 1.801416997224999150e+01 7.586249801247442193e+00 2.627950573750034380e+00 -4.450000108008204022e-08 9.103499602494146359e+00 5.255910688500035732e+00 -5.550000923410886895e-08 -2.980701586161172726e-07 5.255910017993933536e+00 1.801417999474999476e+01 3.034499701929832760e+00 5.255910247493949861e+00 1.801417997799999426e+01 6.068999701929823409e+00 5.255910476993967073e+00 1.801417996124999021e+01 -4.551750496822680958e+00 7.883859673743900842e+00 1.801418001724999840e+01 -1.517250596258358675e+00 7.883859885249969501e+00 4.999984302690526601e-10 1.517249503177301229e+00 7.883860132743934379e+00 1.801417998374999740e+01 4.551749403741624178e+00 7.883860344250003038e+00 -3.300000448455093379e-08 -9.990039429066135956e-03 1.751970016086981330e+00 1.686146999830514304e+01 3.034499960570925303e+00 1.751970246342544391e+00 1.686146998149999732e+01 6.068999960570915952e+00 1.751970475842561381e+00 1.686146996474999682e+01 9.103499960570907490e+00 1.751970705342578150e+00 1.686146994799999632e+01 -1.517250238181597322e+00 4.379919902092511919e+00 1.686147000400000096e+01 1.517249761818393772e+00 4.379920131592529131e+00 1.686146998725000046e+01 4.551749761818385309e+00 4.379920361092545456e+00 1.686146997049999996e+01 7.586249761818375958e+00 4.379920590592562668e+00 1.686146995374999946e+01 -3.034500436934884693e+00 7.007879787342496058e+00 1.686147000974999699e+01 -4.369348936292667556e-07 7.007880016842512383e+00 1.686146999299999294e+01 3.034499563065097494e+00 7.007880246342529595e+00 1.686146997624999244e+01 6.068999563065088587e+00 7.007880475842545920e+00 1.686146995949999194e+01 -4.551750635687415780e+00 9.635829672592480577e+00 1.686147001550000013e+01 -1.517250635687424687e+00 9.635829902092496013e+00 1.686146999874999608e+01 1.517249364312566406e+00 9.635830131592513226e+00 1.686146998199999558e+01 4.551749364312557944e+00 9.635830361092530438e+00 1.686146996524999508e+01 1.517249940112195050e+00 8.759801159014212191e-01 1.152709990750003355e+00 4.551749940056986965e+00 8.759803453914493110e-01 1.142709974000001960e+00 7.586249940112177015e+00 8.759805749014548670e-01 1.152709957250000361e+00 1.062074994011216944e+01 8.759808044014717465e-01 1.152709940499998975e+00 -2.586410924526745067e-07 3.503940001151405248e+00 1.152709996499996725e+00 3.034499741358898550e+00 3.503940230651422016e+00 1.152709979749995117e+00 6.068999741358890532e+00 3.503940460151438785e+00 1.152709962999993731e+00 9.103499741358881181e+00 3.503940689651455997e+00 1.152709946249992345e+00 -1.517250457393623631e+00 6.131889886401388878e+00 1.152710002249999865e+00 1.517249542606367463e+00 6.131890115901406091e+00 1.152709985499998480e+00 4.551749542606359000e+00 6.131890345401422415e+00 1.152709968749997094e+00 7.586249542606349650e+00 6.131890574901439628e+00 1.152709951999995486e+00 -3.034500656146911002e+00 8.759849771651373018e+00 1.152710007999993236e+00 -6.561469199184986024e-07 8.759850001151390231e+00 1.152709991249991850e+00 3.034499343853071185e+00 8.759850230651407443e+00 1.152709974499990242e+00 6.068999343853062278e+00 8.759850460151422880e+00 1.152709957749988856e+00
1.213800009943563296e+01 9.359940154107361345e-07 1.801417993299999409e+01 -3.034510695575276085e+00 1.051180978849313519e+01 1.801417000625005826e+01 9.304424715022051857e-06 1.051181001799466586e+01 1.801416998949994408e+01 3.034499204989092647e+00 1.051181022949998756e+01 -2.725000119240300075e-08 1.062073980124673334e+01 2.627960803249304700e+00 9.938750042672298807e-06 1.517239900683073683e+00 2.627950132743182454e+00 1.801416998900005595e+01 4.551749900682308336e+00 2.627960362243956016e+00 1.801416997224999150e+01 7.586249801247442193e+00 2.627950573750034380e+00 -4.450000108008204022e-08 9.103499602494146359e+00 5.255910688500035732e+00 -5.550000923410886895e-08 -2.980701586161172726e-07 5.255910017993933536e+00 1.801417999474999476e+01 3.034499701929777249e+00 5.255910247493939202e+00 1.801416997799999464e+01 6.068999701929823409e+00 5.255910476993967073e+00 1.801417996124999021e+01 -4.551750496822736025e+00 7.883859673743890184e+00 1.801417001724999878e+01 -1.517250596258358675e+00 7.883859885249969501e+00 4.999984302690526601e-10 1.517249503177301229e+00 7.883860132743934379e+00 1.801417998374999740e+01 4.551749403741624178e+00 7.883860344250003038e+00 -3.300000448455093379e-08 -9.990039429066135956e-03 1.751970016086981330e+00 1.686146999830514304e+01 3.034499960570925303e+00 1.751970246342544391e+00 1.686146998149999732e+01 6.068999960570915952e+00 1.751970475842561381e+00 1.686146996474999682e+01 9.103499960570907490e+00 1.751970705342578150e+00 1.686146994799999632e+01 -1.517250238181597322e+00 4.379919902092511919e+00 1.686147000400000096e+01 1.517249761818393772e+00 4.379920131592529131e+00 1.686146998725000046e+01 4.551749761818385309e+00 4.379920361092545456e+00 1.686146997049999996e+01 7.586249761818375958e+00 4.379920590592562668e+00 1.686146995374999946e+01 -3.034500436934884693e+00 7.007879787342496058e+00 1.686147000974999699e+01 -4.369348936292667556e-07 7.007880016842512383e+00 1.686146999299999294e+01 3.034499563065097494e+00 7.007880246342529595e+00 1.686146997624999244e+01 6.068999563065088587e+00 7.007880475842545920e+00 1.686146995949999194e+01 -4.551750635687415780e+00 9.635829672592480577e+00 1.686147001550000013e+01 -1.517250635687424687e+00 9.635829902092496013e+00 1.686146999874999608e+01 1.517249364312566406e+00 9.635830131592513226e+00 1.686146998199999558e+01 4.551749364312557944e+00 9.635830361092530438e+00 1.686146996524999508e+01 1.517249940112139761e+00 8.759801159014112271e-01 1.152699990750003511e+00 4.551749940057042920e+00 8.759803453914593030e-01 1.142719974000002026e+00 7.586249940112177015e+00 8.759805749014548670e-01 1.152709957250000361e+00 1.062074994011216944e+01 8.759808044014717465e-01 1.152709940499998975e+00 -2.586410924526745067e-07 3.503940001151405248e+00 1.152709996499996725e+00 3.034499741358898550e+00 3.503940230651422016e+00 1.152709979749995117e+00 6.068999741358890532e+00 3.503940460151438785e+00 1.152709962999993731e+00 9.103499741358881181e+00 3.503940689651455997e+00 1.152709946249992345e+00 -1.517250457393623631e+00 6.131889886401388878e+00 1.152710002249999865e+00 1.517249542606367463e+00 6.131890115901406091e+00 1.152709985499998480e+00 4.551749542606359000e+00 6.131890345401422415e+00 1.152709968749997094e+00 7.586249542606349650e+00 6.131890574901439628e+00 1.152709951999995486e+00 -3.034500656146911002e+00 8.759849771651373018e+00 1.152710007999993236e+00 -6.561469199184986024e-07 8.759850001151390231e+00 1.152709991249991850e+00 3.034499343853071185e+00 8.759850230651407443e+00 1.152709974499990242e+00 6.068999343853062278e+00 8.759850460151422880e+00 1.152709957749988856e+00
1.213800009943557789e+01 9.359940054219671198e-07 1.801416993299999447e+01 -3.034510695575331152e+00 1.051180978849312453e+01 1.801416000625005864e+01 9.304424715022051857e-06 1.051181001799466586e+01 1.801416998949994408e+01 3.034499204989092647e+00 1.051181022949998756e+01 -2.725000119240300075e-08 1.062072980124673371e+01 2.627960803248548416e+00 9.938750097870854223e-06 1.517229900683018551e+00 2.627950132742415956e+00 1.801415998900011317e+01 4.551749900682308336e+00 2.627960362243956016e+00 1.801416997224999150e+01 7.586249801247442193e+00 2.627950573750034380e+00 -4.450000108008204022e-08 9.103499602494146359e+00 5.255910688500035732e+00 -5.550000923410886895e-08 -2.980701586161172726e-07 5.255910017993933536e+00 1.801417999474999476e+01 3.034499701929777249e+00 5.255910247493939202e+00 1.801416997799999464e+01 6.068999701929768342e+00 5.255910476993956415e+00 1.801416996124999059e+01 -4.551750496822736025e+00 7.883859673743890184e+00 1.801417001724999878e+01 -1.517250596258358675e+00 7.883859885249969501e+00 4.999984302690526601e-10 1.517249503177301229e+00 7.883860132743934379e+00 1.801417998374999740e+01 4.551749403741624178e+00 7.883860344250003038e+00 -3.300000448455093379e-08 -9.990039429066135956e-03 1.751970016086981330e+00 1.686146999830514304e+01 3.034499960570925303e+00 1.751970246342544391e+00 1.686146998149999732e+01 6.068999960570915952e+00 1.751970475842561381e+00 1.686146996474999682e+01 9.103499960570907490e+00 1.751970705342578150e+00 1.686146994799999632e+01 -1.517250238181597322e+00 4.379919902092511919e+00 1.686147000400000096e+01 1.517249761818393772e+00 4.379920131592529131e+00 1.686146998725000046e+01 4.551749761818385309e+00 4.379920361092545456e+00 1.686146997049999996e+01 7.586249761818375958e+00 4.379920590592562668e+00 1.686146995374999946e+01 -3.034500436934884693e+00 7.007879787342496058e+00 1.686147000974999699e+01 -4.369348936292667556e-07 7.007880016842512383e+00 1.686146999299999294e+01 3.034499563065097494e+00 7.007880246342529595e+00 1.686146997624999244e+01 6.068999563065088587e+00 7.007880475842545920e+00 1.686146995949999194e+01 -4.551750635687415780e+00 9.635829672592480577e+00 1.686147001550000013e+01 -1.517250635687424687e+00 9.635829902092496013e+00 1.686146999874999608e+01 1.517249364312566406e+00 9.635830131592513226e+00 1.686146998199999558e+01 4.551749364312557944e+00 9.635830361092530438e+00 1.686146996524999508e+01 1.517249940111383477e+00 8.759901159014112926e-01 1.152699990749993519e+00 4.551749940057042920e+00 8.759803453914593030e-01 1.142719974000002026e+00 7.586249940112121060e+00 8.759805749014448750e-01 1.152699957250000518e+00 1.062074994011216944e+01 8.759808044014717465e-01 1.152709940499998975e+00 -2.586411476512285465e-07 3.503940001151395034e+00 1.152699996499996882e+00 3.034499741358843483e+00 3.503940230651411802e+00 1.152699979749995274e+00 6.068999741358834576e+00 3.503940460151428571e+00 1.152699962999993888e+00 9.103499741358826114e+00 3.503940689651445783e+00 1.152699946249992502e+00 -1.517250457393678920e+00 6.131889886401379108e+00 1.152700002250000022e+00 1.517249542606312174e+00 6.131890115901396321e+00 1.152699985499998636e+00 4.551749542606303045e+00 6.131890345401412645e+00 1.152699968749997250e+00 7.586249542606293694e+00 6.131890574901429858e+00 1.152699951999995642e+00 -3.034500656146966069e+00 8.759849771651364136e+00 1.152700007999993392e+00 -6.561469751170526421e-07 8.759850001151381349e+00 1.152699991249992006e+00 3.034499343853016118e+00 8.759850230651398562e+00 1.152699974499990399e+00 6.068999343853006323e+00 8.759850460151413998e+00 1.152699957749989013e+00
