-4.702367947299999855e+02
-4.702367952800000239e+02
-4.702367962899999725e+02
-4.702367978300000004e+02
-4.702367999300000179e+02
-4.702368025900000248e+02
