6.068999305181054460e+00 1.050181047699395087e+01 1.801417995600998623e+01 3.034500099435660125e+00 2.474939649777346120e-07 1.801417998324999914e+01 6.069000099435650775e+00 4.769939817887350842e-07 1.801417996649999509e+01 9.103500099435642312e+00 7.064939985997356093e-07 1.801417994974999459e+01 1.062074990068310143e+01 2.627950821243999258e+00 1.801417993874999723e+01 1.517249900683128816e+00 2.627950132743948508e+00 1.801417998900000228e+01 4.551749900683120131e+00 2.627950362243965721e+00 1.801417997225000178e+01 7.586249900683110781e+00 2.627950591743982489e+00 1.801417995549999773e+01 9.103499701929814947e+00 5.255910706493984286e+00 1.801417994449998972e+01 -2.980701586161172726e-07 5.255910017993933536e+00 1.801417999474999476e+01 3.034499701929832760e+00 5.255910247493949861e+00 1.801417997799999426e+01 6.068999701929823409e+00 5.255910476993967073e+00 1.801417996124999021e+01 7.586249503177283415e+00 7.883860591743967916e+00 1.801417995024999286e+01 -1.517250496822689865e+00 7.883859903243918055e+00 1.801418000049999790e+01 1.517249503177301229e+00 7.883860132743934379e+00 1.801417998374999740e+01 4.551749503177292766e+00 7.883860362243951592e+00 1.801417996699999691e+01 -3.942906616344270633e-08 1.751970016842527622e+00 1.686146999824999781e+01 3.034499960570925303e+00 1.751970246342544391e+00 1.686146998149999732e+01 6.068999960570915952e+00 1.751970475842561381e+00 1.686146996474999682e+01 9.103499960570907490e+00 1.751970705342578150e+00 1.686146994799999632e+01 -1.517250238181597322e+00 4.379919902092511919e+00 1.686147000400000096e+01 1.517249761818393772e+00 4.379920131592529131e+00 1.686146998725000046e+01 4.551749761818385309e+00 4.379920361092545456e+00 1.686146997049999996e+01 7.586249761818375958e+00 4.379920590592562668e+00 1.686146995374999946e+01 -3.034500436934884693e+00 7.007879787342496058e+00 1.686147000974999699e+01 -4.369348936292667556e-07 7.007880016842512383e+00 1.686146999299999294e+01 3.034499563065097494e+00 7.007880246342529595e+00 1.686146997624999244e+01 6.068999563065088587e+00 7.007880475842545920e+00 1.686146995949999194e+01 -4.551750635687415780e+00 9.635829672592480577e+00 1.686147001550000013e+01 -1.517250635687424687e+00 9.635829902092496013e+00 1.686146999874999608e+01 1.517249364312566406e+00 9.635830131592513226e+00 1.686146998199999558e+01 4.551749364312557944e+00 9.635830361092530438e+00 1.686146996524999508e+01 1.517249940112195050e+00 8.759801159014212191e-01 1.152709990750003355e+00 4.551749940868488942e+00 8.659803454014380897e-01 1.152709974009990646e+00 7.586249940112177015e+00 8.759805749014548670e-01 1.152709957250000361e+00 1.062074994011216944e+01 8.759808044014717465e-01 1.152709940499998975e+00 -2.586410924526745067e-07 3.503940001151405248e+00 1.152709996499996725e+00 3.034499741358898550e+00 3.503940230651422016e+00 1.152709979749995117e+00 6.068999741358890532e+00 3.503940460151438785e+00 1.152709962999993731e+00 9.103499741358881181e+00 3.503940689651455997e+00 1.152709946249992345e+00 -1.517250457393623631e+00 6.131889886401388878e+00 1.152710002249999865e+00 1.517249542606367463e+00 6.131890115901406091e+00 1.152709985499998480e+00 4.551749542606359000e+00 6.131890345401422415e+00 1.152709968749997094e+00 7.586249542606349650e+00 6.131890574901439628e+00 1.152709951999995486e+00 -3.034500656146911002e+00 8.759849771651373018e+00 1.152710007999993236e+00 -6.561469199184986024e-07 8.759850001151390231e+00 1.152709991249991850e+00 3.034499343853071185e+00 8.759850230651407443e+00 1.152709974499990242e+00 6.068999343853062278e+00 8.759850460151422880e+00 1.152709957749988856e+00
6.068999305180298620e+00 1.050182047699395049e+01 1.801417995600997557e+01 -3.034500695575276019e+00 1.051180978849389192e+01 1.801417000625000142e+01 -6.955752849779188914e-07 1.051181001799390913e+01 1.801416998950000092e+01 3.034499304424761679e+00 1.051181024749393522e+01 1.801417997275000005e+01 1.062074980124743284e+01 2.627950803250051148e+00 -6.125000253749203903e-08 1.517249801247460006e+00 2.627950114750000399e+00 -1.099999816526205749e-08 4.551749801247451543e+00 2.627950344250017611e+00 -2.774999962267205134e-08 7.586249801247442193e+00 2.627950573750034380e+00 -4.450000108008204022e-08 -3.034500298070149427e+00 5.255909788493916324e+00 1.801418001149999526e+01 -2.980701586161172726e-07 5.255910017993933536e+00 1.801417999474999476e+01 3.034499602494163728e+00 5.255910229500001307e+00 -2.200000631928888126e-08 6.068999602494154821e+00 5.255910459000018520e+00 -3.875000777669887676e-08 7.586249503177283415e+00 7.883860591743967916e+00 1.801417995024999286e+01 -1.517250496822689865e+00 7.883859903243918055e+00 1.801418000049999790e+01 1.517249503177301229e+00 7.883860132743934379e+00 1.801417998374999740e+01 4.551749403741624178e+00 7.883860344250003038e+00 -3.300000448455093379e-08 -3.942906616344270633e-08 1.751970016842527622e+00 1.686146999824999781e+01 3.034499960570925303e+00 1.751970246342544391e+00 1.686146998149999732e+01 6.068999960570915952e+00 1.751970475842561381e+00 1.686146996474999682e+01 9.103499960570907490e+00 1.751970705342578150e+00 1.686146994799999632e+01 -1.517250238181597322e+00 4.379919902092511919e+00 1.686147000400000096e+01 1.517249761818393772e+00 4.379920131592529131e+00 1.686146998725000046e+01 4.551749761818385309e+00 4.379920361092545456e+00 1.686146997049999996e+01 7.586249761818375958e+00 4.379920590592562668e+00 1.686146995374999946e+01 -3.034500436934884693e+00 7.007879787342496058e+00 1.686147000974999699e+01 -4.369348936292667556e-07 7.007880016842512383e+00 1.686146999299999294e+01 3.034499563065097494e+00 7.007880246342529595e+00 1.686146997624999244e+01 6.068999563065088587e+00 7.007880475842545920e+00 1.686146995949999194e+01 -4.551750635687415780e+00 9.635829672592480577e+00 1.686147001550000013e+01 -1.517250635687424687e+00 9.635829902092496013e+00 1.686146999874999608e+01 1.517249364312566406e+00 9.635830131592513226e+00 1.686146998199999558e+01 4.551749364312557944e+00 9.635830361092530438e+00 1.686146996524999508e+01 1.517249940112195050e+00 8.759801159014212191e-01 1.152709990750003355e+00 4.551749940867733102e+00 8.659903454014381552e-01 1.152709974009980654e+00 7.586249940112177015e+00 8.759805749014548670e-01 1.152709957250000361e+00 1.062074994011216944e+01 8.759808044014717465e-01 1.152709940499998975e+00 -2.586410924526745067e-07 3.503940001151405248e+00 1.152709996499996725e+00 3.034499741358898550e+00 3.503940230651422016e+00 1.152709979749995117e+00 6.068999741358890532e+00 3.503940460151438785e+00 1.152709962999993731e+00 9.103499741358881181e+00 3.503940689651455997e+00 1.152709946249992345e+00 -1.517250457393623631e+00 6.131889886401388878e+00 1.152710002249999865e+00 1.517249542606367463e+00 6.131890115901406091e+00 1.152709985499998480e+00 4.551749542606359000e+00 6.131890345401422415e+00 1.152709968749997094e+00 7.586249542606349650e+00 6.131890574901439628e+00 1.152709951999995486e+00 -3.034500656146911002e+00 8.759849771651373018e+00 1.152710007999993236e+00 -6.561469199184986024e-07 8.759850001151390231e+00 1.152709991249991850e+00 3.034499343853071185e+00 8.759850230651407443e+00 1.152709974499990242e+00 6.068999343853819006e+00 8.759840460151423258e+00 1.152709957749998848e+00
6.068999305179541892e+00 1.050183047699395011e+01 1.801417995600996491e+01 -3.034500695575276019e+00 1.051180978849389192e+01 1.801417000625000142e+01 -6.955752849779188914e-07 1.051181001799390913e+01 1.801416998950000092e+01 3.034499304424761679e+00 1.051181024749393522e+01 1.801417997275000005e+01 1.062074980124743284e+01 2.627950803250051148e+00 -6.125000253749203903e-08 1.517249801247460006e+00 2.627950114750000399e+00 -1.099999816526205749e-08 4.551749801247451543e+00 2.627950344250017611e+00 -2.774999962267205134e-08 7.586249801247442193e+00 2.627950573750034380e+00 -4.450000108008204022e-08 -3.034500298070149427e+00 5.255909788493916324e+00 1.801418001149999526e+01 -2.980701586161172726e-07 5.255910017993933536e+00 1.801417999474999476e+01 3.034499602494163728e+00 5.255910229500001307e+00 -2.200000631928888126e-08 6.068999602494154821e+00 5.255910459000018520e+00 -3.875000777669887676e-08 7.586249503177283415e+00 7.883860591743967916e+00 1.801417995024999286e+01 -1.517250496822689865e+00 7.883859903243918055e+00 1.801418000049999790e+01 1.517249503177301229e+00 7.883860132743934379e+00 1.801417998374999740e+01 4.551749403741624178e+00 7.883860344250003038e+00 -3.300000448455093379e-08 -3.942906616344270633e-08 1.751970016842527622e+00 1.686146999824999781e+01 3.034499960570925303e+00 1.751970246342544391e+00 1.686146998149999732e+01 6.068999960570915952e+00 1.751970475842561381e+00 1.686146996474999682e+01 9.103499960570907490e+00 1.751970705342578150e+00 1.686146994799999632e+01 -1.517250238181597322e+00 4.379919902092511919e+00 1.686147000400000096e+01 1.517249761818393772e+00 4.379920131592529131e+00 1.686146998725000046e+01 4.551749761818385309e+00 4.379920361092545456e+00 1.686146997049999996e+01 7.586249761818375958e+00 4.379920590592562668e+00 1.686146995374999946e+01 -3.034500436934884693e+00 7.007879787342496058e+00 1.686147000974999699e+01 -4.369348936292667556e-07 7.007880016842512383e+00 1.686146999299999294e+01 3.034499563065097494e+00 7.007880246342529595e+00 1.686146997624999244e+01 6.068999563065088587e+00 7.007880475842545920e+00 1.686146995949999194e+01 -4.551750635687415780e+00 9.635829672592480577e+00 1.686147001550000013e+01 -1.517250635687424687e+00 9.635829902092496013e+00 1.686146999874999608e+01 1.517249364312566406e+00 9.635830131592513226e+00 1.686146998199999558e+01 4.551749364312557944e+00 9.635830361092530438e+00 1.686146996524999508e+01 1.517249940112195050e+00 8.759801159014212191e-01 1.152709990750003355e+00 4.551749940867733102e+00 8.659903454014381552e-01 1.152709974009980654e+00 7.586249940112177015e+00 8.759805749014548670e-01 1.152709957250000361e+00 1.062074994011216944e+01 8.759808044014717465e-01 1.152709940499998975e+00 -2.586410924526745067e-07 3.503940001151405248e+00 1.152709996499996725e+00 3.034499741358898550e+00 3.503940230651422016e+00 1.152709979749995117e+00 6.068999741358890532e+00 3.503940460151438785e+00 1.152709962999993731e+00 9.103499741358881181e+00 3.503940689651455997e+00 1.152709946249992345e+00 -1.517250457393623631e+00 6.131889886401388878e+00 1.152710002249999865e+00 1.517249542606367463e+00 6.131890115901406091e+00 1.152709985499998480e+00 4.551749542606359000e+00 6.131890345401422415e+00 1.152709968749997094e+00 7.586249542606349650e+00 6.131890574901439628e+00 1.152709951999995486e+00 -3.034500656146911002e+00 8.759849771651373018e+00 1.152710007999993236e+00 -6.561469199184986024e-07 8.759850001151390231e+00 1.152709991249991850e+00 3.034499343853071185e+00 8.759850230651407443e+00 1.152709974499990242e+00 6.068999343853819006e+00 8.759840460151423258e+00 1.152709957749998848e+00
6.068999305178029324e+00 1.050185047699394936e+01 1.801417995600994715e+01 -3.034500695575276019e+00 1.051180978849389192e+01 1.801417000625000142e+01 -6.955752849779188914e-07 1.051181001799390913e+01 1.801416998950000092e+01 3.034499304424761679e+00 1.051181024749393522e+01 1.801417997275000005e+01 1.062074980124743284e+01 2.627950803250051148e+00 -6.125000253749203903e-08 1.517249801247460006e+00 2.627950114750000399e+00 -1.099999816526205749e-08 4.551749801247506610e+00 2.627950344250027381e+00 9.972250000377328724e-06 7.586249801247442193e+00 2.627950573750034380e+00 -4.450000108008204022e-08 -3.034500298070149427e+00 5.255909788493916324e+00 1.801418001149999526e+01 -2.980701586161172726e-07 5.255910017993933536e+00 1.801417999474999476e+01 3.034499602494163728e+00 5.255910229500001307e+00 -2.200000631928888126e-08 6.068999602494154821e+00 5.255910459000018520e+00 -3.875000777669887676e-08 7.586249503177283415e+00 7.883860591743967916e+00 1.801417995024999286e+01 -1.517250496822744932e+00 7.883859903243907397e+00 1.801417000049999828e+01 1.517249503177301229e+00 7.883860132743934379e+00 1.801417998374999740e+01 4.551749403741624178e+00 7.883860344250003038e+00 -3.300000448455093379e-08 -3.942906616344270633e-08 1.751970016842527622e+00 1.686146999824999781e+01 3.034499960570925303e+00 1.751970246342544391e+00 1.686146998149999732e+01 6.068999960570915952e+00 1.751970475842561381e+00 1.686146996474999682e+01 9.103499960570907490e+00 1.751970705342578150e+00 1.686146994799999632e+01 -1.517250238181597322e+00 4.379919902092511919e+00 1.686147000400000096e+01 1.517249761818393772e+00 4.379920131592529131e+00 1.686146998725000046e+01 4.551749761818385309e+00 4.379920361092545456e+00 1.686146997049999996e+01 7.586249761818375958e+00 4.379920590592562668e+00 1.686146995374999946e+01 -3.034500436934884693e+00 7.007879787342496058e+00 1.686147000974999699e+01 -4.369348936292667556e-07 7.007880016842512383e+00 1.686146999299999294e+01 3.034499563065097494e+00 7.007880246342529595e+00 1.686146997624999244e+01 6.068999563065088587e+00 7.007880475842545920e+00 1.686146995949999194e+01 -4.551750635687415780e+00 9.635829672592480577e+00 1.686147001550000013e+01 -1.517250635687424687e+00 9.635829902092496013e+00 1.686146999874999608e+01 1.517249364312566406e+00 9.635830131592513226e+00 1.686146998199999558e+01 4.551749364312557944e+00 9.635830361092530438e+00 1.686146996524999508e+01 1.517249940112195050e+00 8.759801159014212191e-01 1.152709990750003355e+00 4.551749940867733102e+00 8.659903454014381552e-01 1.152709974009980654e+00 7.586249940112177015e+00 8.759805749014548670e-01 1.152709957250000361e+00 1.062074994011216944e+01 8.759808044014717465e-01 1.152709940499998975e+00 -2.586410924526745067e-07 3.503940001151405248e+00 1.152709996499996725e+00 3.034499741358898550e+00 3.503940230651422016e+00 1.152709979749995117e+00 6.068999741358890532e+00 3.503940460151438785e+00 1.152709962999993731e+00 9.103499741358881181e+00 3.503940689651455997e+00 1.152709946249992345e+00 -1.517250457393623631e+00 6.131889886401388878e+00 1.152710002249999865e+00 1.517249542606367463e+00 6.131890115901406091e+00 1.152709985499998480e+00 4.551749542606359000e+00 6.131890345401422415e+00 1.152709968749997094e+00 7.586249542606349650e+00 6.131890574901439628e+00 1.152709951999995486e+00 -3.034500656146911002e+00 8.759849771651373018e+00 1.152710007999993236e+00 -6.561469199184986024e-07 8.759850001151390231e+00 1.152709991249991850e+00 3.034499343853071185e+00 8.759850230651407443e+00 1.152709974499990242e+00 6.068999343853819006e+00 8.759840460151423258e+00 1.152709957749998848e+00
6.068999305176516756e+00 1.050187047699395038e+01 1.801417995600992583e+01 -3.034510695575276085e+00 1.051180978849313519e+01 1.801417000625005826e+01 -6.955752849779188914e-07 1.051181001799390913e+01 1.801416998950000092e+01 3.034499304424761679e+00 1.051181024749393522e+01 1.801417997275000005e+01 1.062074980124743284e+01 2.627950803250051148e+00 -6.125000253749203903e-08 1.517249801247460006e+00 2.627950114750000399e+00 -1.099999816526205749e-08 4.551749801248262450e+00 2.627940344250027760e+00 9.972250010366093503e-06 7.586249801247442193e+00 2.627950573750034380e+00 -4.450000108008204022e-08 -3.034500298070149427e+00 5.255909788493916324e+00 1.801418001149999526e+01 -2.980701586161172726e-07 5.255910017993933536e+00 1.801417999474999476e+01 3.034499602494163728e+00 5.255910229500001307e+00 -2.200000631928888126e-08 6.068999602494154821e+00 5.255910459000018520e+00 -3.875000777669887676e-08 7.586249503177283415e+00 7.883860591743967916e+00 1.801417995024999286e+01 -1.517250496822744932e+00 7.883859903243907397e+00 1.801417000049999828e+01 1.517249503177301229e+00 7.883860132743934379e+00 1.801417998374999740e+01 4.551749403741624178e+00 7.883860344250003038e+00 -3.300000448455093379e-08 -3.942906616344270633e-08 1.751970016842527622e+00 1.686146999824999781e+01 3.034499960570925303e+00 1.751970246342544391e+00 1.686146998149999732e+01 6.068999960570915952e+00 1.751970475842561381e+00 1.686146996474999682e+01 9.103499960570907490e+00 1.751970705342578150e+00 1.686146994799999632e+01 -1.517250238181597322e+00 4.379919902092511919e+00 1.686147000400000096e+01 1.517249761818393772e+00 4.379920131592529131e+00 1.686146998725000046e+01 4.551749761818385309e+00 4.379920361092545456e+00 1.686146997049999996e+01 7.586249761818375958e+00 4.379920590592562668e+00 1.686146995374999946e+01 -3.034500436934884693e+00 7.007879787342496058e+00 1.686147000974999699e+01 -4.369348936292667556e-07 7.007880016842512383e+00 1.686146999299999294e+01 3.034499563065097494e+00 7.007880246342529595e+00 1.686146997624999244e+01 6.068999563065088587e+00 7.007880475842545920e+00 1.686146995949999194e+01 -4.551750635687415780e+00 9.635829672592480577e+00 1.686147001550000013e+01 -1.517250635687424687e+00 9.635829902092496013e+00 1.686146999874999608e+01 1.517249364312566406e+00 9.635830131592513226e+00 1.686146998199999558e+01 4.551749364312557944e+00 9.635830361092530438e+00 1.686146996524999508e+01 1.517249940112139761e+00 8.759801159014112271e-01 1.152699990750003511e+00 4.551749940867733102e+00 8.659903454014381552e-01 1.152709974009980654e+00 7.586249940112177015e+00 8.759805749014548670e-01 1.152709957250000361e+00 1.062074994011211437e+01 8.759808044014617545e-01 1.152699940499999132e+00 -2.586410924526745067e-07 3.503940001151405248e+00 1.152709996499996725e+00 3.034499741358843483e+00 3.503940230651411802e+00 1.152699979749995274e+00 6.068999741358890532e+00 3.503940460151438785e+00 1.152709962999993731e+00 9.103499741358881181e+00 3.503940689651455997e+00 1.152709946249992345e+00 -1.517250457393623631e+00 6.131889886401388878e+00 1.152710002249999865e+00 1.517249542606367463e+00 6.131890115901406091e+00 1.152709985499998480e+00 4.551749542606359000e+00 6.131890345401422415e+00 1.152709968749997094e+00 7.586249542606349650e+00 6.131890574901439628e+00 1.152709951999995486e+00 -3.034500656146911002e+00 8.759849771651373018e+00 1.152710007999993236e+00 -6.561469199184986024e-07 8.759850001151390231e+00 1.152709991249991850e+00 3.034499343853071185e+00 8.759850230651407443e+00 1.152709974499990242e+00 6.068999343853819006e+00 8.759840460151423258e+00 1.152709957749998848e+00
6.068999305174248349e+00 1.050190047699394924e+01 1.801417995600989741e+01 -3.034510695575276085e+00 1.051180978849313519e+01 1.801417000625005826e+01 9.304424715022051857e-06 1.051181001799466586e+01 1.801416998949994408e+01 3.034499304424761679e+00 1.051181024749393522e+01 1.801417997275000005e+01 1.062074980124743284e+01 2.627950803250051148e+00 -6.125000253749203903e-08 1.517249801247460006e+00 2.627950114750000399e+00 -1.099999816526205749e-08 4.551749801249019178e+00 2.627930344250027694e+00 9.972250020354858283e-06 7.586249801247442193e+00 2.627950573750034380e+00 -4.450000108008204022e-08 -3.034500298070149427e+00 5.255909788493916324e+00 1.801418001149999526e+01 -2.980701586161172726e-07 5.255910017993933536e+00 1.801417999474999476e+01 3.034499602494163728e+00 5.255910229500001307e+00 -2.200000631928888126e-08 6.068999602494154821e+00 5.255910459000018520e+00 -3.875000777669887676e-08 7.586249503177283415e+00 7.883860591743967916e+00 1.801417995024999286e+01 -1.517250496822744932e+00 7.883859903243907397e+00 1.801417000049999828e+01 1.517249503177246162e+00 7.883860132743923721e+00 1.801416998374999778e+01 4.551749403741624178e+00 7.883860344250003038e+00 -3.300000448455093379e-08 -3.942830986086624265e-08 1.751960016842527557e+00 1.686146999825000847e+01 3.034499960570925303e+00 1.751970246342544391e+00 1.686146998149999732e+01 6.068999960570915952e+00 1.751970475842561381e+00 1.686146996474999682e+01 9.103499960570907490e+00 1.751970705342578150e+00 1.686146994799999632e+01 -1.517250238181597322e+00 4.379919902092511919e+00 1.686147000400000096e+01 1.517249761818393772e+00 4.379920131592529131e+00 1.686146998725000046e+01 4.551749761818385309e+00 4.379920361092545456e+00 1.686146997049999996e+01 7.586249761818375958e+00 4.379920590592562668e+00 1.686146995374999946e+01 -3.034500436934884693e+00 7.007879787342496058e+00 1.686147000974999699e+01 -4.369348936292667556e-07 7.007880016842512383e+00 1.686146999299999294e+01 3.034499563065097494e+00 7.007880246342529595e+00 1.686146997624999244e+01 6.068999563065088587e+00 7.007880475842545920e+00 1.686146995949999194e+01 -4.551750635687415780e+00 9.635829672592480577e+00 1.686147001550000013e+01 -1.517250635687424687e+00 9.635829902092496013e+00 1.686146999874999608e+01 1.517249364312566406e+00 9.635830131592513226e+00 1.686146998199999558e+01 4.551749364312557944e+00 9.635830361092530438e+00 1.686146996524999508e+01 1.517249940112139761e+00 8.759801159014112271e-01 1.152699990750003511e+00 4.551749940866920419e+00 8.660003454014281177e-01 1.152699974009970818e+00 7.586249940112121060e+00 8.759805749014448750e-01 1.152699957250000518e+00 1.062074994011211437e+01 8.759808044014617545e-01 1.152699940499999132e+00 -2.586411476512285465e-07 3.503940001151395034e+00 1.152699996499996882e+00 3.034499741358843483e+00 3.503940230651411802e+00 1.152699979749995274e+00 6.068999741358834576e+00 3.503940460151428571e+00 1.152699962999993888e+00 9.103499741358826114e+00 3.503940689651445783e+00 1.152699946249992502e+00 -1.517250457393678920e+00 6.131889886401379108e+00 1.152700002250000022e+00 1.517249542606312174e+00 6.131890115901396321e+00 1.152699985499998636e+00 4.551749542606303045e+00 6.131890345401412645e+00 1.152699968749997250e+00 7.586249542606293694e+00 6.131890574901429858e+00 1.152699951999995642e+00 -3.034500656146209785e+00 8.759839771651364515e+00 1.152700008000003384e+00 -6.561462188144762843e-07 8.759840001151381728e+00 1.152699991250001998e+00 3.034499343853016118e+00 8.759850230651398562e+00 1.152699974499990399e+00 6.068999343853819006e+00 8.759840460151423258e+00 1.152709957749998848e+00
