-9.120130077356686975e-04 1.719769999308309039e-01 -1.940001667496716058e-04 -1.629499908840621042e-02 -1.314500124733621218e-02 -1.495799989692372413e-02 1.628400091818859793e-02 -1.318599878274575796e-02 -1.432500007671414118e-02 9.269999975028806079e-04 -7.999930452119957845e-06 -5.620000051089150267e-04 1.467000212815961239e-03 -2.764999888381156588e-03 6.699999946642654558e-04 6.880003027049964035e-04 -3.884999946359178613e-03 1.609000000082974613e-03 5.300317207891096265e-05 -3.988499996784013180e-02 2.818300003954763572e-02 -2.202999901974693909e-03 -1.187000165120133182e-03 1.495000013345907947e-03 1.889999702659389612e-04 3.660000139225354394e-04 -3.720000014088414571e-04 -2.710000408218839326e-04 5.109999791106411334e-04 -3.939999990145450458e-04 5.460001708565770861e-04 -2.203999957951720875e-03 7.549999991876826929e-04 -4.709998401296623389e-04 -2.061000034898658514e-03 7.240000046585363946e-04 2.420002597195767646e-04 -3.470999982202899528e-03 -5.059999978687047990e-04 -6.299964620766872604e-05 -4.886000007612490217e-03 -2.850999994771738402e-03 1.385000046589717707e-03 -6.619998958813837556e-04 -6.300000069837436876e-04 -1.563999747263117432e-03 -3.327000118083940292e-03 2.020000119563160139e-04 -1.979966800580852096e-04 -4.080799997269820428e-02 4.232400004185508241e-02 4.887000264835563053e-03 -1.484999602793960231e-03 2.763199997450779821e-02 -7.012999823644224667e-03 -3.640005034632769936e-04 2.696200003907433737e-02 2.327000260637926681e-03 -1.978999803927962344e-03 2.010299998913207126e-02 4.250002651862102611e-04 -2.035999947733760970e-03 2.014599999968777477e-02 -1.394999759187982727e-03 -1.680000084919349617e-03 2.060800000937831195e-02 2.729998356561083909e-04 3.500000038808629994e-03 1.818199999499701264e-02 7.070000480628619048e-04 8.920000743760841738e-04 2.092899999520646259e-02 2.131000093037074220e-03 2.110001808919015885e-04 1.974599998802642475e-02 -7.609999168529328183e-04 3.559999623639770465e-04 1.994100000384501151e-02 6.180002732053239837e-04 -2.153999933300936292e-03 1.998199999874030949e-02 -1.986999405931900217e-03 -6.399000130351707900e-03 1.994800001735976339e-02 1.834600107514832226e-02 -1.350599860277217935e-02 9.725999912223557906e-03 8.350009773493030727e-04 -1.250999993120005017e-02 5.655000007886865944e-03 -2.854999853912404753e-03 -3.590001944015841300e-04 2.154700001611778437e-02 -1.634499911301347599e-02 -1.109800122755522263e-02 8.631000101307568020e-03 -1.857399912851710397e-02 -1.384400143652264777e-02 -3.180199988364575819e-02 -8.870083249673238858e-04 1.087149999143085799e-01 -1.862800010369674436e-02 3.621999956886952799e-03 -9.129997463643825745e-04 -2.032000001908094294e-02 1.582500075934743095e-02 -1.229599883402342393e-02 -3.090700007506952743e-02 1.264000215733493719e-03 -4.340999924775436683e-03 -2.039500000264097418e-02 3.489000280467220976e-03 -5.367999758839477401e-03 -2.273900001389680611e-02 -4.837999729993045991e-03 -5.214000388397874511e-03 -2.252399996808679764e-02 8.099989855840392734e-05 -1.460000142290620456e-04 -2.037800000030127318e-02 -2.630000151852862384e-04 -1.253000039787383014e-03 -1.991899999729668594e-02 4.639998431505885598e-04 5.980000148931493295e-04 -2.022200000315853979e-02 -4.329998156484446653e-04 -3.883000052530647533e-03 -1.980499999373126416e-02 2.430000391109759573e-04 -2.015000002121792189e-03 -2.052299999932858873e-02 2.634000367852301194e-03 -6.134999818187322068e-03 -1.741700000841119034e-02 -4.989997208417147395e-04 -5.010000055790188138e-03 -1.807099999224122053e-02 -9.070000632400745640e-04 -6.460000888818337320e-04 -2.030799999434821507e-02 -1.217996884545821624e-03 -4.097500008913089464e-02 2.990000047652147455e-03
-9.100130007776848721e-04 1.718849999309821908e-01 -1.940001666688146809e-04 -1.628499908876228364e-02 -1.314000124657591258e-02 -1.495399989698391677e-02 1.627100091798931031e-02 -1.318299878372395685e-02 -1.432000007664537868e-02 9.269999975084004980e-04 -7.999930451121080690e-06 -5.610000051089150024e-04 1.467000212507920320e-03 -2.760999888382155692e-03 6.689999946602699296e-04 6.870003023213252027e-04 -3.879999946435808058e-03 1.608000000083500101e-03 5.200317037640631208e-05 -3.986299996792275896e-02 2.817600003953118007e-02 -2.198999902288254187e-03 -1.183000164819610024e-03 1.493000013319833053e-03 1.879999704392788763e-04 3.640000138509006896e-04 -3.680000014013238814e-04 -2.720000406595837164e-04 5.089999790370087953e-04 -3.919999990070274104e-04 5.470001707108363776e-04 -2.201999957875091802e-03 7.559999991801650762e-04 -4.699998403565530864e-04 -2.058000034823028509e-03 7.240000046500198782e-04 2.380002593359056536e-04 -3.465999982506419094e-03 -5.069999978516197487e-04 -5.999964671500111041e-05 -4.879000007381603665e-03 -2.846999994795290645e-03 1.383000046443977034e-03 -6.599998960316453460e-04 -6.290000069747016340e-04 -1.561999747495528045e-03 -3.324000117933678580e-03 2.010000119422796644e-04 -1.949966830700314063e-04 -4.076999997249628610e-02 4.229900004180056627e-02 4.886000264607024378e-03 -1.482999602883574913e-03 2.761799997451131958e-02 -7.011999823797133470e-03 -3.630005034016309685e-04 2.694800003906781816e-02 2.327000260047796740e-03 -1.971999803938950021e-03 2.009199998912507973e-02 4.240002649963108168e-04 -2.033999947816382981e-03 2.013899999969129620e-02 -1.395999759388922169e-03 -1.678000085003969596e-03 2.059900000938183137e-02 2.729998360767708107e-04 3.494000038802636595e-03 1.817599999500300531e-02 7.050000480667340842e-04 8.910000742118381455e-04 2.091599999521850245e-02 2.128000093100017396e-03 2.090001806490287878e-04 1.972999998804498417e-02 -7.589999168490607585e-04 3.549999625022522099e-04 1.992800000383497180e-02 6.220002732848263494e-04 -2.155999933011400801e-03 1.996899999872022921e-02 -1.985999406370769511e-03 -6.394000130287064501e-03 1.993700001734925037e-02 1.833000107438649898e-02 -1.349599860398325961e-02 9.724999912301884875e-03 8.320009771224122280e-04 -1.250699993142694207e-02 5.655000007900428879e-03 -2.849999853843942360e-03 -3.610001940384159700e-04 2.153200001609218220e-02 -1.632699911391000472e-02 -1.108600122619188104e-02 8.633000101196225060e-03 -1.855899912900070559e-02 -1.383600143536621759e-02 -3.177999988373655244e-02 -8.860083221027660952e-04 1.086779999143961811e-01 -1.861600010366530611e-02 3.616999957358941770e-03 -9.179997467255529911e-04 -2.030300001904835130e-02 1.581400075879923692e-02 -1.228699883483138494e-02 -3.088300007501780173e-02 1.264000215416060790e-03 -4.335999924764448281e-03 -2.038400000264596959e-02 3.489000280387718599e-03 -5.365999758826491862e-03 -2.272600001389880539e-02 -4.838999730055989698e-03 -5.212000388457522712e-03 -2.250799996808327402e-02 8.099989870027245924e-05 -1.470000142170755102e-04 -2.036600000030027238e-02 -2.620000148866373588e-04 -1.256000039698767449e-03 -1.990599999729920910e-02 4.639998434602771952e-04 5.950000149081324970e-04 -2.020700000315554454e-02 -4.339998157058675603e-04 -3.881000052589296534e-03 -1.978799999372774301e-02 2.400000392804437584e-04 -2.016000002331701669e-03 -2.050599999931103021e-02 2.631000367638098008e-03 -6.130999818398230952e-03 -1.740100000839862882e-02 -4.979997209858076776e-04 -5.007000055699575326e-03 -1.805599999224973690e-02 -9.040000633841674535e-04 -6.430000886399598638e-04 -2.029299999436777122e-02 -1.219996887360700862e-03 -4.093800008928515088e-02 2.987000047626228987e-03
-9.090129858084136909e-04 1.716869999310568218e-01 -1.950001664765569828e-04 -1.626699908975487094e-02 -1.312600124520258218e-02 -1.494199989709725854e-02 1.625300091692109122e-02 -1.316799878507331385e-02 -1.430800007656100534e-02 9.269999975840307552e-04 -8.999930451121077892e-06 -5.610000051079161269e-04 1.465000212356659757e-03 -2.758999888533416375e-03 6.689999946693119589e-04 6.870003020944344310e-04 -3.876999946435807660e-03 1.608000000080503367e-03 5.200316662471711975e-05 -3.981499996794473500e-02 2.815400003948323460e-02 -2.197999902369404419e-03 -1.182000164744978618e-03 1.492000013313314480e-03 1.879999705093892705e-04 3.630000138499017899e-04 -3.690000014003250303e-04 -2.720000405894732950e-04 5.079999790360098955e-04 -3.929999990060285592e-04 5.460001708620969762e-04 -2.203999957950722108e-03 7.559999991876827172e-04 -4.699998402864427193e-04 -2.059000034824027409e-03 7.230000046510187293e-04 2.380002592602753963e-04 -3.464999982506419395e-03 -5.069999978526186241e-04 -5.999964693085216977e-05 -4.876000007379606600e-03 -2.844999994798286681e-03 1.383000046443977034e-03 -6.599998960316453460e-04 -6.290000069747016340e-04 -1.560999747646788643e-03 -3.322000117858048274e-03 2.010000119347620776e-04 -1.939966870502590421e-04 -4.071999997245661501e-02 4.226300004174510239e-02 4.884000264627457420e-03 -1.483999603044824315e-03 2.760799997452335897e-02 -7.008999823625440551e-03 -3.660005031847289700e-04 2.693800003905425650e-02 2.325000259852376839e-03 -1.969999804098201707e-03 2.008399998913412351e-02 4.230002647087016091e-04 -2.030999947903001229e-03 2.012799999969381790e-02 -1.393999759600900992e-03 -1.676000084863696771e-03 2.058800000936879260e-02 2.729998374436353858e-04 3.476000038803635575e-03 1.817699999502098498e-02 7.050000481092452177e-04 8.900000742058448685e-04 2.090999999521950259e-02 2.125000093201598935e-03 2.070001804131480882e-04 1.972099998806354018e-02 -7.579999168876997481e-04 3.549999625708902848e-04 1.992100000382945185e-02 6.230002732461872514e-04 -2.155999932942762997e-03 1.996199999871470926e-02 -1.985999406544109586e-03 -6.392000130291060171e-03 1.993300001734725144e-02 1.830000107334975659e-02 -1.348199860624817170e-02 9.728999912453496768e-03 8.310009767922920494e-04 -1.250299993150756628e-02 5.650000007901952170e-03 -2.841999853613179274e-03 -3.650001934463592275e-04 2.151900001605202076e-02 -1.630499911507592853e-02 -1.107000122452002355e-02 8.641000101058804797e-03 -1.853699913010039418e-02 -1.382000143368237663e-02 -3.175999988387396417e-02 -8.860083178674716883e-04 1.086219999143961806e-01 -1.861600010360936822e-02 3.614999957543321794e-03 -9.199997468708203015e-04 -2.029700001903531059e-02 1.579100075762943783e-02 -1.226999883654990471e-02 -3.086200007490782354e-02 1.264000215211249578e-03 -4.332999924760452815e-03 -2.038000000264896319e-02 3.489000280437397176e-03 -5.365999758817502525e-03 -2.271700001389880680e-02 -4.836999730006310422e-03 -5.212000388297271559e-03 -2.249899996809431521e-02 7.899989873339157505e-05 -1.470000143623427719e-04 -2.036000000028923354e-02 -2.620000148590380710e-04 -1.256000039693772963e-03 -1.990099999729920757e-02 4.639998434823565930e-04 5.950000149121279988e-04 -2.020300000315554401e-02 -4.329998159161988001e-04 -3.878000052510669794e-03 -1.978499999373626098e-02 2.390000391347031367e-04 -2.014000002406333544e-03 -2.050499999930750772e-02 2.629000367649137956e-03 -6.130999818547494366e-03 -1.739900000838759050e-02 -4.969997208991378326e-04 -5.008000055621947451e-03 -1.805399999225425905e-02 -9.030000633676079757e-04 -6.430000885613329801e-04 -2.028999999437329158e-02 -1.219996891756070997e-03 -4.088200008931412027e-02 2.958000047570292015e-03
-9.040129650912429688e-04 1.714129999314339681e-01 -1.960001662304641204e-04 -1.624099909089319477e-02 -1.311000124322321027e-02 -1.492899989725675683e-02 1.622500091547473058e-02 -1.314799878717897580e-02 -1.429600007642642737e-02 9.249999976431014020e-04 -9.999930605378222785e-06 -5.640000050958776526e-04 1.463000211886318928e-03 -2.752999888687672828e-03 6.659999946743584134e-04 6.860003014617931149e-04 -3.868999946516432642e-03 1.603000000078032240e-03 5.000316175348593322e-05 -3.975299996812894920e-02 2.812100003943234297e-02 -2.192999902315853709e-03 -1.183000164370822749e-03 1.488000013286713916e-03 1.899999705850195493e-04 3.620000140011623343e-04 -3.690000014103658266e-04 -2.710000402869522417e-04 5.039999791116401640e-04 -3.929999990075529475e-04 5.440001706186467023e-04 -2.200999958104978959e-03 7.529999991957256897e-04 -4.689998402218521637e-04 -2.060000034750394601e-03 7.210000046464977745e-04 2.350002586552333195e-04 -3.456999982733309756e-03 -5.069999978440500659e-04 -5.899964730900345890e-05 -4.871000007303976330e-03 -2.844999994808801273e-03 1.380000046659828061e-03 -6.629998962605338332e-04 -6.310000069551454944e-04 -1.556999748187240127e-03 -3.315000117557525151e-03 1.990000119056905029e-04 -1.939966930631117198e-04 -4.064399997250456309e-02 4.221500004166919146e-02 4.884000264740078270e-03 -1.485999603051816166e-03 2.760099997452535731e-02 -7.005999823296968528e-03 -3.710005029668280905e-04 2.692900003904269077e-02 2.322000259597886869e-03 -1.966999804330087000e-03 2.007899998914768405e-02 4.240002645408815570e-04 -2.028999947830367225e-03 2.012499999968630354e-02 -1.390999759622980371e-03 -1.676000084640801501e-03 2.058400000935223587e-02 2.699998394486610698e-04 3.450000038583736842e-03 1.818399999506351353e-02 7.030000483565676224e-04 8.860000740445956105e-04 2.089999999523453611e-02 2.123000093244110237e-03 2.060001802558943237e-04 1.971499998807557663e-02 -7.549999167640385027e-04 3.529999627927866849e-04 1.991600000381488558e-02 6.240002734454788138e-04 -2.158999932872126756e-03 1.995699999871218197e-02 -1.986999406971939799e-03 -6.387000130375681053e-03 1.992400001734777673e-02 1.825800107189234911e-02 -1.346199860941465522e-02 9.738999912665352934e-03 8.290009767757324389e-04 -1.250299993166182309e-02 5.647000007912992420e-03 -2.828999853161045294e-03 -3.720001924771502012e-04 2.150500001598725300e-02 -1.627599911672710647e-02 -1.104700122231076428e-02 8.657000100875755430e-03 -1.850899913130166566e-02 -1.380200143153576149e-02 -3.173099988404650545e-02 -8.860083133611276057e-04 1.085629999144041846e-01 -1.860800010355043513e-02 3.612999957873441574e-03 -9.239997470170864275e-04 -2.029200001902027595e-02 1.576300075598542627e-02 -1.224599883863658825e-02 -3.083100007477724072e-02 1.264000214569216277e-03 -4.323999924753460684e-03 -2.037300000265795247e-02 3.486000280584785390e-03 -5.366999759031407073e-03 -2.270400001388124533e-02 -4.835999729858922111e-03 -5.213000388208656813e-03 -2.248599996809883331e-02 7.899989869640030454e-05 -1.460000143553506465e-04 -2.035300000029023268e-02 -2.600000145935082909e-04 -1.259000039535520176e-03 -1.989399999730724969e-02 4.619998437478863842e-04 5.920000147678595396e-04 -2.019600000314150656e-02 -4.339998160934108564e-04 -3.875000052577310099e-03 -1.977599999373373316e-02 2.380000388227901007e-04 -2.009000002469976849e-03 -2.049299999930698224e-02 2.623000367763406865e-03 -6.131999818994283806e-03 -1.739200000835347190e-02 -4.969997206336080470e-04 -5.011000055614954311e-03 -1.804699999225126139e-02 -8.990000633880395600e-04 -6.420000882488231721e-04 -2.027999999439637074e-02 -1.217996897859465648e-03 -4.080400008919981419e-02 2.921000047481339592e-03
-9.040129332083933099e-04 1.709909999314279672e-01 -2.020001658089382523e-04 -1.619599909306109961e-02 -1.307900123978788381e-02 -1.489699989753611592e-02 1.618300091336425175e-02 -1.311899879034046472e-02 -1.428100007622356074e-02 9.129999982221920305e-04 -1.699993150395140106e-05 -5.550000050226471665e-04 1.462000211146575893e-03 -2.742999888760306974e-03 6.689999946698895134e-04 6.940003006502919441e-04 -3.858999945921379095e-03 1.593000000023884555e-03 6.200315466689780162e-05 -3.966199996725835314e-02 2.808400003927520941e-02 -2.189999902456074479e-03 -1.181000164141934178e-03 1.490000013268156544e-03 1.789999709355715785e-04 3.570000131642351139e-04 -3.740000013446529966e-04 -2.720000401301719156e-04 5.019999790370087336e-04 -3.919999990000352821e-04 5.390001705650958840e-04 -2.199999958479134828e-03 7.569999992223261451e-04 -4.689998405022937950e-04 -2.056000034746399002e-03 7.250000046425021530e-04 2.250002588545248314e-04 -3.459999983494606995e-03 -5.119999977858548769e-04 -5.599964838825878440e-05 -4.856000007067096981e-03 -2.834999994840343724e-03 1.375000046135936137e-03 -6.559998966376862908e-04 -6.300000069345383646e-04 -1.548999748733211404e-03 -3.308000116955479766e-03 1.960000118545395062e-04 -1.889967015971377587e-04 -4.053699997220631956e-02 4.213500004153470507e-02 4.891000265088983265e-03 -1.491999602541383254e-03 2.758199997449270816e-02 -7.004999822854226198e-03 -3.770005028931955131e-04 2.692700003904316408e-02 2.306000259201528187e-03 -1.962999805557151794e-03 2.006199998923200931e-02 4.220002640799324668e-04 -2.023999947996611183e-03 2.010999999969234620e-02 -1.384999759786928507e-03 -1.675000084203002049e-03 2.056800000931811867e-02 2.839998423927212281e-04 3.411000039641562138e-03 1.818299999502519596e-02 6.950000482257388118e-04 8.870000734295648221e-04 2.088999999527769644e-02 2.107000093194431271e-03 2.060001790368203012e-04 1.970599998816389628e-02 -7.499999174353187952e-04 3.609999631589514433e-04 1.990400000377929787e-02 6.300002733516412616e-04 -2.158999932435325987e-03 1.993999999867906645e-02 -1.982999407610100667e-03 -6.379000130079152432e-03 1.991800001731770797e-02 1.819800107042942108e-02 -1.344199861394348126e-02 9.747999912976567857e-03 8.340009763219509084e-04 -1.249699993128366993e-02 5.647000007879400367e-03 -2.818999852686832151e-03 -3.790001917308363365e-04 2.149500001593904544e-02 -1.623199911808128476e-02 -1.102800121896804937e-02 8.672000100613903514e-03 -1.845799913274473458e-02 -1.378000142763866412e-02 -3.169099988434998655e-02 -8.810083071815259488e-04 1.084809999147783172e-01 -1.861200010349612494e-02 3.610999958354822736e-03 -9.299997471633526022e-04 -2.028700001900324290e-02 1.571500075418076625e-02 -1.221899884222388960e-02 -3.078800007453925611e-02 1.259000213738930988e-03 -4.311999925117627856e-03 -2.035900000264233983e-02 3.498000281331696028e-03 -5.375999758111857374e-03 -2.269200001393849656e-02 -4.834999729582352412e-03 -5.216000388124036533e-03 -2.247699996810136047e-02 6.899989884378871386e-05 -1.470000150986678082e-04 -2.034000000023403545e-02 -2.610000151212723998e-04 -1.251000039597166200e-03 -1.987999999730972328e-02 4.619998431980428476e-04 6.000000147778482718e-04 -2.018600000314949711e-02 -4.279998165195931289e-04 -3.869000052118534358e-03 -1.977099999377284964e-02 2.340000383634887053e-04 -2.003000002773496716e-03 -2.049399999929089541e-02 2.624000367639745934e-03 -6.129999818913658798e-03 -1.738700000836098866e-02 -4.989997207627890497e-04 -5.009000055762220793e-03 -1.804299999224221948e-02 -8.980000636519217677e-04 -6.380000881662007978e-04 -2.027299999440588738e-02 -1.217996906039644188e-03 -4.070000008925675483e-02 2.864000047377456351e-03
-9.180128924420367801e-04 1.704529999303831256e-01 -1.880001651942647233e-04 -1.612599909616251742e-02 -1.303500123445281225e-02 -1.485599989796645461e-02 1.614300091091038641e-02 -1.308399879333071482e-02 -1.424600007603772645e-02 9.239999980267725541e-04 -1.499993068000958890e-05 -5.630000050853633609e-04 1.468000211084209477e-03 -2.743999888331496908e-03 6.439999946377691995e-04 6.930003001302722371e-04 -3.852999946008996146e-03 1.581000000023411118e-03 5.400314271459837653e-05 -3.950899996793231367e-02 2.801500003916653977e-02 -2.190999903723581544e-03 -1.163000164200583657e-03 1.507000013255696763e-03 1.759999699059949622e-04 3.720000129563229611e-04 -3.550000013430766469e-04 -2.740000395786806029e-04 4.949999788897437676e-04 -3.879999989820034391e-04 5.420001710928598788e-04 -2.207999958266228507e-03 7.429999992137575719e-04 -4.439998387501104243e-04 -2.078000032839660664e-03 7.410000045264812001e-04 2.300002576610002901e-04 -3.443999983113459236e-03 -5.089999978294361535e-04 -6.799965062404735180e-05 -4.826000007968666954e-03 -2.828999994804072028e-03 1.363000046429065299e-03 -6.589998975332628369e-04 -6.180000068653034159e-04 -1.551999749795907090e-03 -3.293000117169384792e-03 2.090000118561159540e-04 -1.879967116807601481e-04 -4.040899997220361028e-02 4.206200004140133591e-02 4.872000264865962958e-03 -1.489999603991343366e-03 2.756899997459558854e-02 -7.003999822905552196e-03 -3.780005028405394700e-04 2.690400003903864468e-02 2.325000258939870657e-03 -1.960999804140154366e-03 2.004199998912513381e-02 4.310002652127385573e-04 -2.039999947329923513e-03 2.009599999965865080e-02 -1.380999758881013310e-03 -1.688000083914465268e-03 2.055400000930902166e-02 2.639998463602615019e-04 3.360000038148934672e-03 1.820299999518653483e-02 6.960000489820414088e-04 8.770000735051950531e-04 2.088999999528216509e-02 2.103000093251854424e-03 2.040001787173183949e-04 1.968899998818797459e-02 -7.429999164388612597e-04 3.459999636633913182e-04 1.987900000375564247e-02 6.360002739290840151e-04 -2.166999931986538907e-03 1.993499999865393918e-02 -1.982999408973092851e-03 -6.362000130093136384e-03 1.990400001730072838e-02 1.810800106701831308e-02 -1.339499862072423414e-02 9.773999913426407657e-03 8.240009760398615346e-04 -1.249399993204996194e-02 5.637000007931601206e-03 -2.786999852237993791e-03 -3.880001893526209295e-04 2.145300001577140139e-02 -1.616999912259207972e-02 -1.096500121423302568e-02 8.718000100208744135e-03 -1.841299913597533450e-02 -1.373400142419035387e-02 -3.164599988464433106e-02 -8.910082985839803396e-04 1.083689999140450000e-01 -1.858900010332905500e-02 3.603999958373029899e-03 -9.289997476757834959e-04 -2.027000001896560322e-02 1.567800075176001978e-02 -1.218399884498125307e-02 -3.074700007436998242e-02 1.268000214124250045e-03 -4.315999924421973048e-03 -2.034400000268802786e-02 3.494000281137924716e-03 -5.372999758408385403e-03 -2.268600001391941207e-02 -4.830999730309408317e-03 -5.205000387802537036e-03 -2.245799996813442612e-02 5.999989871238323923e-05 -1.430000157483749684e-04 -2.030900000018835347e-02 -2.660000142104138932e-04 -1.261000039947348999e-03 -1.985199999727213852e-02 4.619998443672635466e-04 5.860000147978259829e-04 -2.016600000313551605e-02 -4.109998168889292215e-04 -3.862000050803852426e-03 -1.974199999387367746e-02 2.340000390789278607e-04 -2.011000002753519401e-03 -2.047399999928290609e-02 2.599000367475221441e-03 -6.125999820779443571e-03 -1.736200000822698750e-02 -4.939997204900916988e-04 -5.011000055362093211e-03 -1.802099999226781935e-02 -8.810000639732267283e-04 -6.320000868565133758e-04 -2.024899999450571753e-02 -1.224996919360456151e-03 -4.053000008987006630e-02 2.780000047246286663e-03
