-4.702363211399999727e+02
-4.702363225199999874e+02
-4.702363252900000248e+02
-4.702363295200000266e+02
-4.702363352799999916e+02
-4.702363426599999912e+02
