1.478585423343274467e-02 -8.154311223481149409e-03 -2.113428231708586874e-02 -3.057614709094967284e-02 5.300753069896345284e-04 3.621747401673685446e-03 1.578387422119468045e-02 8.734381980725423877e-03 2.781451892419290264e-02 6.608747531179203372e-04 1.404309333666683328e-05 3.076026715134455060e-03 -3.321286510533304984e-04 -1.836955448427371115e-03 3.124012522324853304e-03 -3.381209687073881984e-04 1.835042882920573512e-03 3.005960217361987579e-03 -1.414123747459686796e-03 1.623970045197391243e-02 -2.120628784716997381e-02 -1.440148172763769255e-03 -1.742060386395567761e-02 2.786118836761306353e-02 2.848876078635870137e-03 -6.959087724052290669e-06 3.043116110120407808e-03 -2.113486030257628656e-05 1.130470016453612869e-04 3.313997539694165610e-03 4.287498306763340444e-05 -4.956507836565562148e-06 3.070001819031548031e-03 -3.011471846712758182e-05 -1.139600660046753580e-04 2.815000392022681906e-03 1.668752312076953001e-04 4.331000463486595417e-08 3.064006797533846884e-03 -8.212875692734736288e-05 -1.009551339507854797e-04 3.159998089906787544e-03 -9.312114593908401054e-05 1.020422801051560393e-04 2.976994764061558114e-03 -4.213160426004890571e-05 -4.495415865280637046e-05 3.230998924720076670e-03 -4.911861268916985879e-05 6.104135245635056411e-05 2.913997137125873792e-03 8.487490394183903875e-05 -1.956512367115818519e-06 3.072003486772145828e-03 -2.971127588190097270e-04 1.520395333832818229e-04 2.771985748310324543e-03 5.818750758158691347e-04 1.004304177140349371e-05 3.068023554905707339e-03 -2.931382823195939971e-04 -1.489516653074379976e-04 3.392990178123252067e-03 -3.112623457832390127e-05 4.397543850681638269e-08 3.099998734771860186e-03 7.881954021170000421e-06 -3.589590040435875168e-04 2.892005412895495148e-03 1.286617973020729829e-05 3.490466772659978870e-04 3.292995578270446668e-03 -3.201214263950251707e-04 -5.159576129813918215e-04 2.971994282290825202e-03 -3.151293727319359576e-04 5.160454312255930180e-04 3.186979854243319251e-03 6.238744211133002201e-04 6.043235730694001011e-06 3.084025321877634576e-03 6.092556836733261294e-04 7.769107133668552928e-04 -6.263986211300879604e-03 6.359978267889383275e-04 -7.979999591488838801e-04 3.803721228123226045e-05 -1.233874714272554553e-03 -1.704265885736241622e-05 -3.077050005647924413e-03 3.831245205428908417e-04 9.309565995207126242e-04 -3.039997600585831513e-03 -7.368744922748026198e-04 6.956881102151796453e-06 -3.082030107646595123e-03 3.631267702763808390e-04 -9.270446748114346191e-04 -3.130972072633738095e-03 1.987125296376696798e-03 -4.518088969446495629e-08 -3.076919084808456707e-03 -9.838624934515162544e-04 1.449529345720442690e-04 -3.374042121956736216e-03 -9.948865783895098451e-04 -1.390387485982846991e-04 -2.788038543946018931e-03 -2.769295929228521373e-05 1.773893603213056456e-03 -7.506026284558655996e-03 -2.805562862789109997e-05 -1.771981093074045813e-03 1.332023981574807650e-03 6.412411471655263425e-05 -3.043264031718640341e-06 -3.047997348498822021e-03 1.551014639051349897e-03 8.589939225025554174e-04 -3.429490203398841814e-04 -3.090875117590037840e-03 -1.404106305584964990e-05 -3.067125666811034313e-03 1.547235587157465113e-03 -8.600834707770527426e-04 -5.801924806573210969e-03 3.043124607164438000e-03 4.954233288381989395e-06 -3.059876154494297999e-03 -1.524825246471002513e-03 -9.110598979592430743e-04 -4.309049179349795124e-03 -1.511923099353133012e-03 9.069746571436272274e-04 -1.871074427419074440e-03 2.812691040503037667e-05 3.095580006263068607e-05 -3.115999296430207576e-03 2.012246006152071425e-05 -3.604266246474647562e-05 -3.007998672387260895e-03 -4.187543178127641115e-05 3.956663009419213253e-06 -3.059001764143159333e-03 1.912337396800188990e-05 3.895704057698619506e-05 -3.028999776420850457e-03 -3.487514674120213010e-05 3.956558283878578068e-06 -3.066001479090694256e-03 2.712596283152938156e-05 -3.504388723622160827e-05 -3.093998401439120808e-03 8.212480538875665094e-05 -5.043519147968999097e-06 -3.064996587152171888e-03 -3.887629554071321135e-05 -7.043041604757701348e-06 -3.038001486044729447e-03 -3.587373013028069139e-05 -7.043937154854051788e-06 -3.101001363823611360e-03 -5.709976432027063283e-04 -7.000375220620349388e-06 -5.802315230772661479e-05 2.889932202617111353e-04 -5.449980144948702449e-04 1.560194950620449861e-04 2.730087510861219395e-04 5.149968797420821209e-04 -2.049961845652630975e-04 -1.579911267686063127e-04 -2.650030379082583300e-04 -2.230026765798571661e-04 -1.210037194754998006e-04 2.420014557864933618e-04 9.599164166901438724e-05 2.870006019552539633e-04 -1.100043738571827393e-05 -1.498815714638741434e-05 3.319987687215382628e-04 4.000017955290003079e-05 3.101295218321448491e-05 -6.310009023623089483e-04 4.300082015553285188e-05 2.297369547773555701e-05 3.149988572044982288e-04 -2.999849665216514023e-06 2.801286957536338495e-05 -2.549101737615925428e-02 -2.199740434153719970e-04 4.219651034989287228e-04 1.288412787001093698e-02 -7.120708384702261265e-03 2.128062562823843443e-02 1.260186049706803722e-02 6.956692427417057040e-03 -2.099758549173581443e-02 -2.842186543180830628e-03 -1.286928450437801151e-02 -2.022393329694146744e-02 -2.736835561816093609e-03 1.333929669880922625e-02 2.077569945125111797e-02 5.572998421394297075e-03 6.999620346718071100e-05 4.022594482264632413e-05 -2.970287503154832092e-04 -3.431990693315124276e-03 6.400365633964948987e-04 5.540015328281100134e-04 -1.800097253427958334e-05 -3.797718541341424218e-05 -2.619721811487241321e-04 3.333991428753557522e-03 -6.190579369509708078e-04 4.799885901807630651e-05 5.100037356710866330e-05 2.900123150795841893e-05 -6.700212994030526714e-05 3.600080388026748179e-05 5.299676125422165239e-05 1.799629441361107998e-05 5.200129025800041387e-05 9.199999564609674869e-05 7.996663235204326967e-06 3.001156314948102068e-06 8.200028315729146543e-05 -4.499666558021830741e-05 -5.800114151634106760e-05 -8.300101005086248638e-05 3.100101721171539388e-05 -1.000378717664102808e-06 -2.499872345261195842e-05 -3.001892745489501029e-06 -2.499934546990453734e-05 4.600023223877180615e-05 -2.600223808247056716e-05 -4.999921403610975884e-05 5.399965009584601375e-05 2.500263743098389373e-05 -1.200094113039276967e-05 -6.499881178513657899e-05 -1.975758998137373736e-03 -4.248646333245669794e-03 1.659019799360944014e-01 -1.956841687100063006e-03 4.154206697815478709e-03 -1.265951386994123573e-01 3.933136868434358550e-03 4.029744641740428790e-05 2.119715960901305887e-02 -2.707919659402177864e-03 -3.821678723692682831e-03 2.251094393514180975e-02 5.337137619000801615e-03 -3.970393645704099712e-05 2.117721791532769376e-02 -2.630804656248709496e-03 3.775283247114765654e-03 1.983283936466774880e-02 -9.249861274873108496e-03 5.730713065322279748e-05 2.115162254505264031e-02 4.572195154514175144e-03 4.752767710362058103e-04 1.977417946363263165e-02 4.683083475564022401e-03 -3.326846529469564061e-04 2.250119543674497166e-02 -5.884646789613497575e-05 1.512948017641558857e-04 2.078999547802199907e-02 -1.148648761200194454e-04 -5.969880271446547125e-05 2.123799618874596881e-02 1.781435709230015207e-04 6.729806140680832721e-05 2.103300631956995376e-02 1.401268730094309880e-04 -3.969612428804272872e-05 2.144100628881902976e-02 -2.628554170087832884e-04 -4.470197608107083216e-05 2.100598994960922034e-02 1.421643346384170094e-04 1.029084474698559325e-05 2.052200566222685610e-02 9.714529453625005031e-05 -1.970249898472842330e-05 2.098900425468733927e-02 -8.083327996062680105e-05 -1.677098596502397086e-04 2.045999910517658921e-02 -8.790571784063990678e-07 8.330608441572919973e-05 2.158899880317653383e-02 -1.848475712471222784e-04 -9.704759295009129393e-06 2.081399262979236747e-02 -2.148647781153748622e-04 1.330126139999552489e-05 2.123699108168505476e-02 3.951434626348617699e-04 -1.870209431689235787e-05 2.103401637528137455e-02 1.141197240854183024e-04 -2.246936653306900490e-04 2.161300785280324821e-02 -1.728570427827357979e-04 -4.070147943931357617e-05 2.104599355773758076e-02 7.116571614651477098e-05 1.622904608127330710e-04 2.049100061605519524e-02 -2.508572063350134745e-04 6.229866669077519653e-05 2.105198892119598125e-02 9.916129150616518912e-05 -1.317081007685983471e-04 2.059400592440574149e-02 1.301244126536141494e-04 1.983048050746242933e-04 2.150600250724238674e-02 -2.874863821275787466e-03 1.433607059884426348e-03 -2.787413741816899618e-02 5.586866257632267310e-03 9.694021941703068402e-06 -2.127277265532795045e-02 -2.723411401396475754e-03 -1.433203189806458609e-03 -1.448209059340094945e-02 -3.301414579647304242e-04 3.070134870895968701e-05 -2.108301389851366392e-02 1.289220484017683348e-04 -1.083321425668441187e-03 -2.266397941214480516e-02 1.987997068008773662e-04 1.182721733213656099e-03 -1.961600869133066014e-02 -1.062930190918072925e-03 -3.910372708872352811e-03 -2.634698786743830054e-02 -1.039344715230585249e-03 3.746773685656542511e-03 -1.602009545887270528e-02 2.119860382602513794e-03 -8.301221806277406614e-06 -2.112891357945289109e-02 -1.051895630839239689e-04 -6.102822535577756558e-04 -1.991399564946248063e-02 2.528616825414246416e-04 3.769980053125213354e-05 -2.115999025743022996e-02 -1.520851056050638291e-04 7.516817856833111914e-04 -2.245301687109607647e-02 -1.294137291935867733e-03 -5.829937096449154559e-05 -2.118705189149651391e-02 6.168835577250856607e-04 -4.193082255095461133e-04 -2.170596895529495682e-02 6.688430767903016765e-04 2.507060107470407981e-04 -2.069897633784832658e-02 -5.672086082503015065e-04 -4.912752282617274466e-04 -1.944401615008645862e-02 -6.620619648998209887e-04 5.056740611594073018e-04 -2.302603415046767382e-02 1.234866717006792526e-03 1.969727358421657549e-05 -2.128395001423942154e-02 4.884951183093712968e-05 -6.029582892242966351e-05 -2.086299717533912634e-02 -5.114417868166023753e-05 -1.129793400823976240e-05 -2.101700194199149219e-02 -6.137830160827583432e-06 3.569983319391378378e-05 -2.117200077576398415e-02 -6.514240965173795405e-05 1.170146730618713784e-05 -2.106000283813199217e-02 2.385357928419498403e-05 3.770280121864912461e-05 -2.096099958269012284e-02 1.685845947225162128e-05 -7.429892298012120467e-05 -2.108299827971316445e-02 3.685067244728354674e-05 6.970381183773926626e-05 -2.088899950707442249e-02 3.486013922319953286e-05 -9.299504192419297857e-06 -2.112299846825528224e-02 -7.614477301848218704e-05 9.702298231477543081e-06 -2.100200325775974583e-02
1.468984943396324343e-02 -8.095309461161818987e-03 -2.101528706288624190e-02 -3.038414660167526593e-02 5.310749865207276075e-04 3.609755205910491430e-03 1.568687967000697431e-02 8.672380142679927267e-03 2.767951585341717549e-02 6.678750773116876082e-04 1.204297443353245893e-05 3.068027028543376510e-03 -3.301281999914552619e-04 -1.832955605949515435e-03 3.113012547065726991e-03 -3.461206899234607550e-04 1.827042789940781699e-03 2.998960005023793614e-03 -1.405128756180435388e-03 1.613570216045066841e-02 -2.108528600630739380e-02 -1.434142464749019880e-03 -1.730760582520080720e-02 2.772318700997918398e-02 2.831876283037743081e-03 -5.959145302195267828e-06 3.038115403692823180e-03 -2.313445309251737519e-05 1.130468614333999692e-04 3.303997458261759626e-03 4.187531196947683726e-05 -9.566204763355574277e-07 3.062001721607080038e-03 -2.711463546078878150e-05 -1.119600967094561632e-04 2.813000485831567647e-03 1.678754763154794371e-04 1.043224154765719029e-06 3.058006824082512131e-03 -8.612839043646966692e-05 -1.009552584189591355e-04 3.150997927031749975e-03 -9.012094312094564989e-05 1.010422068672915658e-04 2.971994900406522717e-03 -4.413107723819042723e-05 -4.795434139785134968e-05 3.217998885823749548e-03 -5.011833156032781465e-05 5.604125399528322836e-05 2.906997167300347327e-03 8.587531271655672431e-05 4.334507173276999747e-08 3.062003499146765794e-03 -2.961126765945855475e-04 1.530395042445941280e-04 2.769985774855271508e-03 5.798749912415539784e-04 6.043071693389776949e-06 3.070023530173199462e-03 -2.921380379953832616e-04 -1.489517511572063183e-04 3.386990218849680444e-03 -3.212582815266786982e-05 -9.561655563498483683e-07 3.089998708238068503e-03 9.882202262418705288e-06 -3.539590906768560422e-04 2.886005423453957743e-03 1.286642327167388035e-05 3.480465921993264908e-04 3.286995592453787873e-03 -3.141213034539079942e-04 -5.149576602128557628e-04 2.968994512440957263e-03 -3.141292505702452309e-04 5.160453879092107444e-04 3.183979894966959025e-03 6.208746638736813888e-04 4.043153013111911913e-06 3.078025228076185834e-03 6.112543367496529965e-04 7.729111796685132893e-04 -6.230986073178800683e-03 6.259982402742204476e-04 -7.900000930976824615e-04 2.803669165990933977e-05 -1.227875199793317107e-03 -1.304249342219823633e-05 -3.065049818045026929e-03 3.821238643088391805e-04 9.249568271490394731e-04 -3.023997556254975298e-03 -7.348750224309550565e-04 5.957063847600018591e-06 -3.069030012039214179e-03 3.601261641677098633e-04 -9.210444597961206514e-04 -3.115972279876816006e-03 1.972124810089777823e-03 2.955000988489798351e-06 -3.064919738165669365e-03 -9.758628607292850216e-04 1.439530559083340830e-04 -3.365041782020530402e-03 -9.888869472327668515e-04 -1.420386256958009548e-04 -2.779038257095987896e-03 -2.869455680709810612e-05 1.761894156931281298e-03 -7.467026155182600149e-03 -2.905480715810009301e-05 -1.762981375847864386e-03 1.312023813272677119e-03 6.612366521850673406e-05 -5.043109641760333805e-06 -3.036997238711819022e-03 1.545015081500551810e-03 8.519937712454891303e-04 -3.539491654104210327e-04 -3.079875525591134998e-03 -1.504092989075292342e-05 -3.057125204713204668e-03 1.542234735158266043e-03 -8.560831691287726147e-04 -5.780925066908041733e-03 3.024124242259783411e-03 6.954375765265597275e-06 -3.050876956554362737e-03 -1.513826139987885884e-03 -9.080595946610052396e-04 -4.287048773974173714e-03 -1.502923262243957428e-03 9.069747068078433264e-04 -1.867074060935132842e-03 2.812675065596427929e-05 3.495585677340888565e-05 -3.111999353144980114e-03 2.412229560769609432e-05 -3.804260888534802439e-05 -3.003998481152047803e-03 -4.587543412867927777e-05 9.566661417062708749e-07 -3.059001884493273322e-03 2.212333402824716145e-05 3.995705240569228414e-05 -3.027999668436990189e-03 -3.787539498162144461e-05 -1.043354299856716823e-06 -3.060001530370007588e-03 2.412587747447012270e-05 -4.004385653113836323e-05 -3.091998452714716291e-03 8.912460334589777467e-05 -3.043453740166897327e-06 -3.059996330466388786e-03 -4.087661660433358421e-05 -1.042926617007352345e-06 -3.030001652560449302e-03 -4.087393216318677499e-05 -5.043862351098079229e-06 -3.096001595788041433e-03 -5.909999955919571129e-04 5.000462750224099084e-06 -2.413691182726206446e-08 2.879923815799434678e-04 -5.239977159802884079e-04 1.770191565886394824e-04 3.020067698452315709e-04 5.329975517453517785e-04 -1.559952589058734383e-04 -1.599940202973088098e-04 -2.680020297184927897e-04 -1.520027155542704985e-04 -1.380055871350260811e-04 2.490021212753089808e-04 1.419908501274395960e-04 3.029997585579456004e-04 3.999847818533685647e-06 6.012281701256878435e-06 3.119986590878007378e-04 4.000223572043089204e-06 3.301264816381777219e-05 -6.170009705198326120e-04 8.000823374910435900e-06 2.397476179044294325e-05 3.119997092103326923e-04 -7.000145049527428304e-06 7.012804143385468922e-06 -2.536001486173729627e-02 -1.809750108373172034e-04 3.609698850543553174e-04 1.281213111287493774e-02 -7.087709448375698745e-03 2.120162222854439851e-02 1.253485661062161624e-02 6.933693826770677415e-03 -2.090258789403259126e-02 -2.826186464078160078e-03 -1.282028453108868468e-02 -2.022493334011733063e-02 -2.762828120900799080e-03 1.322129409628687753e-02 2.059070006565705616e-02 5.574000832517355362e-03 2.899535202059603872e-05 -1.977343311242450762e-05 -2.640283642659561306e-04 -3.406990846756675559e-03 6.310375527488614215e-04 5.350010927503633888e-04 -8.000801702611738361e-06 -2.697810089744571071e-05 -2.689706674196764864e-04 3.342990909655195030e-03 -6.560583495624046834e-04 6.099850346478150347e-05 1.300047681435237782e-05 3.700229962659789504e-05 -4.800076738756111695e-05 8.000306961120894078e-06 1.899793195937629717e-05 -1.200328662448581542e-05 1.500115779586612163e-05 8.099929860803712939e-05 -2.004170737657759894e-06 3.000146187589038124e-05 1.029994931296451176e-04 -2.499873452391201395e-05 -4.800043410970877296e-05 -3.200033745888434156e-05 2.299877835572345706e-05 4.073249493101729574e-10 3.000093655168773179e-05 9.996942010837709319e-06 -4.998944494805261039e-06 7.500047802760861991e-05 -3.200208927347557102e-05 -1.599925187494650170e-05 5.099892372957022654e-05 2.100020201963567868e-05 -2.000087331694467932e-06 -4.999116501951625164e-06 -1.936713112001653024e-03 -4.152662313811982149e-03 1.647769801641881249e-01 -2.039868572947104493e-03 4.193216134322962953e-03 -1.259341426327902358e-01 3.968144812911979756e-03 9.729466851449210273e-05 2.100316022629067012e-02 -2.628910795670308647e-03 -3.890681890479608020e-03 2.229194813055830962e-02 5.259146361458958384e-03 -1.597069519528372694e-04 2.096021644063464362e-02 -2.630795702390329501e-03 3.717280113827837237e-03 1.961184018718347202e-02 -9.218853819825824358e-03 1.133045260159403980e-04 2.096962301361345732e-02 4.538201155368770320e-03 4.422746993476881459e-04 1.962617854712746940e-02 4.685091111515929906e-03 -3.056873057634034905e-04 2.231419513556089432e-02 -7.084462842120159279e-05 1.082941589858579161e-04 2.074399559905837701e-02 -7.586174223981345948e-05 -1.136999391139100737e-04 2.115999854253090146e-02 1.481472639821674545e-04 -7.032194536252290527e-07 2.094100606211786106e-02 1.411286075746601468e-04 -8.696720541569290811e-06 2.139900589006825393e-02 -2.628533864268157972e-04 2.973292024198590316e-07 2.095698931165541207e-02 1.301657175897831791e-04 8.290372098098734046e-06 2.048800520196377567e-02 1.221474738765198059e-04 7.296730014491517744e-06 2.093600488995827139e-02 -6.282864404340128095e-05 -1.237114758394822732e-04 2.034699921443536286e-02 -5.887548777572164334e-05 1.173048963578820570e-04 2.150199595940408340e-02 -2.038418828509378519e-04 -2.570672930782003164e-05 2.067399208307055605e-02 -2.028593074284433561e-04 3.129935217764837850e-05 2.110299131526009384e-02 4.061488597166775156e-04 9.296025598339261597e-06 2.090201642635606746e-02 7.512719640439765624e-05 -1.986962293330125646e-04 2.143000589623832164e-02 -1.508508665290688301e-04 -5.703637515857256361e-06 2.089499395751495681e-02 8.117388067913372150e-05 1.882876174210777330e-04 2.029100065482777882e-02 -2.628498805167074018e-04 5.296109911514564948e-06 2.087098924084654361e-02 1.111675389983695386e-04 -1.617102935420137977e-04 2.044000683853201480e-02 1.431311041563617672e-04 1.633024555629677640e-04 2.134100353298855335e-02 -2.769874614736198438e-03 1.430610734785903691e-03 -2.760913310019268499e-02 5.491854490171870981e-03 1.069819370909703976e-05 -2.098377653825522424e-02 -2.728417364632179827e-03 -1.404201101758483037e-03 -1.433509120829699716e-02 -2.951478410041671299e-04 -8.296466955897461670e-06 -2.092701192049611914e-02 1.339136207009233208e-04 -1.185318523125089779e-03 -2.245897776259924219e-02 1.617926550491005048e-04 1.121724200771466017e-03 -1.944400933331846826e-02 -1.046939220721407717e-03 -3.793369545585924089e-03 -2.612298887491124044e-02 -1.088351209367862229e-03 3.773775992467890902e-03 -1.586009783714276145e-02 2.143854427178492391e-03 3.070084353380160010e-05 -2.098191315522189224e-02 -1.321983478179251069e-04 -6.482791841870455844e-04 -1.969899621037031479e-02 2.658533120348089383e-04 8.702696803275097737e-06 -2.095498931709459389e-02 -1.330950673886915903e-04 6.666852160192264639e-04 -2.221001489251590161e-02 -1.268146466658629217e-03 -2.229618714426872801e-05 -2.096105134336396017e-02 6.288740604064908682e-04 -3.273049031328642794e-04 -2.147096977121743661e-02 6.358338410477054744e-04 3.127092691170065561e-04 -2.047097856086969869e-02 -6.002179747997074283e-04 -4.922719415298200006e-04 -1.921401747991059034e-02 -5.920742274157370089e-04 4.986782738667863571e-04 -2.272503120104355651e-02 1.193854576745460036e-03 1.270153067078288623e-05 -2.098595158482699161e-02 1.284496679818400001e-05 -4.029421282350359581e-05 -2.075099892494915166e-02 -2.214864624451178709e-05 3.703602840849496254e-06 -2.090700097385551556e-02 6.857464233139097367e-06 5.870146763690722418e-05 -2.105600057258931110e-02 -7.015071669895326116e-05 1.170436349142201376e-05 -2.085600304192588780e-02 2.484940384260810254e-05 6.170426074615589925e-05 -2.085799988233134547e-02 3.785215477679383520e-05 -6.529674186566649296e-05 -2.092799755231924616e-02 3.984526203310693212e-05 2.470568096227527112e-05 -2.075699874703522060e-02 3.085579774312434127e-05 -4.129799821090021059e-05 -2.101699817754879712e-02 -7.114906203157965383e-05 -7.296217013276304166e-06 -2.089700281323111572e-02