1.942199999999999926e+00 2.780159999999999965e+00 5.233209999999999695e+00 1.629909999999999970e+00 9.759700000000000042e-01 2.582250000000000156e+00 3.152010000000000201e+00 3.457339999999999858e+00 2.582139999999999880e+00 6.405499999999999527e-01 5.261479999999999713e+00 5.233229999999999826e+00 1.850309999999999899e+00 5.938710000000000377e+00 2.582240000000000091e+00 3.464309999999999778e+00 5.261479999999999713e+00 5.233240000000000336e+00 4.674070000000000391e+00 5.938690000000000246e+00 2.582250000000000156e+00 4.453669999999999796e+00 9.759700000000000042e-01 2.582250000000000156e+00 2.162599999999999856e+00 7.742890000000000050e+00 5.233229999999999826e+00 2.233460000000000001e+00 1.425359999999999960e+00 1.042849999999999966e+01 3.755570000000000075e+00 3.906730000000000036e+00 1.042839000000000027e+01 2.453870000000000218e+00 6.388090000000000046e+00 1.042849000000000004e+01 5.057220000000000049e+00 1.425370000000000026e+00 1.042850999999999928e+01 5.277619999999999756e+00 6.388080000000000425e+00 1.042849999999999966e+01 2.545760000000000023e+00 3.229560000000000208e+00 1.307947000000000060e+01 1.244119999999999893e+00 5.710880000000000400e+00 1.307948000000000022e+01 4.067870000000000097e+00 5.710869999999999891e+00 1.307948999999999984e+01 2.766169999999999796e+00 8.192280000000000229e+00 1.307948000000000022e+01 3.149319999999999897e+00 3.678939999999999877e+00 2.092571999999999832e+01 2.837019999999999875e+00 1.874749999999999917e+00 1.827476000000000056e+01 4.359130000000000393e+00 4.356119999999999770e+00 1.827466000000000079e+01 1.847669999999999924e+00 6.160269999999999690e+00 2.092574000000000112e+01 5.881179999999999630e+00 6.837480000000000224e+00 1.827476000000000056e+01 3.057430000000000092e+00 6.837469999999999715e+00 1.827475000000000094e+01 4.671420000000000350e+00 6.160249999999999559e+00 2.092575000000000074e+01 5.660790000000000433e+00 1.874759999999999982e+00 1.827476000000000056e+01 3.369730000000000114e+00 8.641659999999999897e+00 2.092571999999999832e+01 4.894479999999999720e+00 1.090141999999999989e+01 2.582240000000000091e+00 3.372409999999999908e+00 8.420070000000000832e+00 2.582149999999999945e+00 8.609599999999999476e-01 1.022419000000000011e+01 5.233240000000000336e+00 2.383010000000000073e+00 1.270561999999999969e+01 5.233229999999999826e+00 2.070710000000000051e+00 1.090142999999999951e+01 2.582250000000000156e+00 3.684709999999999930e+00 1.022419999999999973e+01 5.233229999999999826e+00 3.592810000000000059e+00 1.338278999999999996e+01 2.582149999999999945e+00 1.081360000000000099e+00 1.518692000000000064e+01 5.233229999999999826e+00 3.905120000000000147e+00 1.518692000000000064e+01 5.233240000000000336e+00 3.975979999999999848e+00 8.869450000000000500e+00 1.042839999999999989e+01 2.674259999999999859e+00 1.135082000000000058e+01 1.042849999999999966e+01 4.196369999999999933e+00 1.383219000000000065e+01 1.042839999999999989e+01 5.498039999999999594e+00 1.135080999999999918e+01 1.042849999999999966e+01 1.464520000000000044e+00 1.067360000000000042e+01 1.307948999999999984e+01 2.986580000000000013e+00 1.315499999999999936e+01 1.307945999999999920e+01 4.288280000000000314e+00 1.067359000000000080e+01 1.307948999999999984e+01 1.684919999999999973e+00 1.563630999999999993e+01 1.307948999999999984e+01 4.508670000000000400e+00 1.563631999999999955e+01 1.307948000000000022e+01 6.101580000000000226e+00 1.180020000000000024e+01 1.827475000000000094e+01 4.579530000000000101e+00 9.318849999999999412e+00 1.827465000000000117e+01 2.068070000000000075e+00 1.112298000000000009e+01 2.092575000000000074e+01 3.590120000000000200e+00 1.360440000000000005e+01 2.092571999999999832e+01 3.277820000000000178e+00 1.180020000000000024e+01 1.827475000000000094e+01 4.891829999999999679e+00 1.112298000000000009e+01 2.092574000000000112e+01 4.799940000000000317e+00 1.428157000000000032e+01 1.827466000000000079e+01 2.288479999999999848e+00 1.608570999999999884e+01 2.092573000000000150e+01 5.112230000000000274e+00 1.608570999999999884e+01 2.092575000000000074e+01 4.765959999999999752e+00 2.780170000000000030e+00 5.233209999999999695e+00 7.589719999999999800e+00 2.780159999999999965e+00 5.233220000000000205e+00 5.975760000000000183e+00 3.457349999999999923e+00 2.582149999999999945e+00 7.277440000000000353e+00 9.759700000000000042e-01 2.582250000000000156e+00 6.288079999999999892e+00 5.261479999999999713e+00 5.233240000000000336e+00 8.799540000000000362e+00 3.457339999999999858e+00 2.582149999999999945e+00 7.497840000000000060e+00 5.938690000000000246e+00 2.582250000000000156e+00 4.986360000000000348e+00 7.742890000000000050e+00 5.233220000000000205e+00 7.810130000000000017e+00 7.742890000000000050e+00 5.233229999999999826e+00 6.579340000000000188e+00 3.906740000000000101e+00 1.042840999999999951e+01 7.880980000000000096e+00 1.425370000000000026e+00 1.042849000000000004e+01 8.101399999999999935e+00 6.388090000000000046e+00 1.042849000000000004e+01 9.403079999999999217e+00 3.906730000000000036e+00 1.042839999999999989e+01 5.369530000000000136e+00 3.229560000000000208e+00 1.307948000000000022e+01 8.193289999999999296e+00 3.229560000000000208e+00 1.307948000000000022e+01 6.891639999999999766e+00 5.710880000000000400e+00 1.307948999999999984e+01 5.589920000000000222e+00 8.192289999999999850e+00 1.307947000000000060e+01 8.413690000000000779e+00 8.192270000000000607e+00 1.307947000000000060e+01 5.973080000000000389e+00 3.678939999999999877e+00 2.092570999999999870e+01 8.796839999999999549e+00 3.678949999999999942e+00 2.092571999999999832e+01 7.182879999999999932e+00 4.356119999999999770e+00 1.827466000000000079e+01 8.484540000000000859e+00 1.874759999999999982e+00 1.827474000000000132e+01 1.000664000000000087e+01 4.356119999999999770e+00 1.827465000000000117e+01 7.495190000000000019e+00 6.160269999999999690e+00 2.092574000000000112e+01 8.704940000000000566e+00 6.837469999999999715e+00 1.827476000000000056e+01 6.193489999999999718e+00 8.641659999999999897e+00 2.092571999999999832e+01 9.017250000000000654e+00 8.641659999999999897e+00 2.092571999999999832e+01 6.196170000000000400e+00 8.420070000000000832e+00 2.582149999999999945e+00 5.206780000000000186e+00 1.270561999999999969e+01 5.233220000000000205e+00 6.508469999999999978e+00 1.022420999999999935e+01 5.233240000000000336e+00 8.030530000000000612e+00 1.270561000000000007e+01 5.233209999999999695e+00 6.416570000000000107e+00 1.338278999999999996e+01 2.582149999999999945e+00 7.718239999999999768e+00 1.090141000000000027e+01 2.582240000000000091e+00 9.240330000000000155e+00 1.338278999999999996e+01 2.582139999999999880e+00 9.019930000000000447e+00 8.420070000000000832e+00 2.582160000000000011e+00 6.728869999999999685e+00 1.518693000000000026e+01 5.233229999999999826e+00 6.799730000000000274e+00 8.869460000000000122e+00 1.042840999999999951e+01 7.020129999999999981e+00 1.383217999999999925e+01 1.042839000000000027e+01 8.321790000000000020e+00 1.135079999999999956e+01 1.042849999999999966e+01 9.623490000000000322e+00 8.869460000000000122e+00 1.042839999999999989e+01 9.843890000000000029e+00 1.383216999999999963e+01 1.042839999999999989e+01 5.810330000000000439e+00 1.315498999999999974e+01 1.307948000000000022e+01 7.112040000000000362e+00 1.067360000000000042e+01 1.307948999999999984e+01 8.634090000000000487e+00 1.315499999999999936e+01 1.307947000000000060e+01 7.332440000000000069e+00 1.563631999999999955e+01 1.307948000000000022e+01 1.044744999999999990e+01 1.428157000000000032e+01 1.827465000000000117e+01 7.403299999999999770e+00 9.318849999999999412e+00 1.827466000000000079e+01 6.413879999999999804e+00 1.360439000000000043e+01 2.092571999999999832e+01 7.715580000000000105e+00 1.112298999999999971e+01 2.092574000000000112e+01 9.237640000000000740e+00 1.360440000000000005e+01 2.092571999999999832e+01 7.623689999999999856e+00 1.428156000000000070e+01 1.827466000000000079e+01 8.925349999999999895e+00 1.180019000000000062e+01 1.827476000000000056e+01 1.022705000000000020e+01 9.318849999999999412e+00 1.827465000000000117e+01 7.935990000000000322e+00 1.608570999999999884e+01 2.092573000000000150e+01 3.058899999999999952e+00 4.964970000000000105e+00 1.369550000000000045e+00 4.360540000000000305e+00 2.483729999999999993e+00 1.369550000000000045e+00 3.741499999999999826e-01 1.878020000000000023e+00 3.907690000000000108e+00 1.536759999999999904e+00 2.483719999999999928e+00 1.369550000000000045e+00 3.418309999999999960e+00 6.840760000000000396e+00 3.907690000000000108e+00 1.896230000000000082e+00 4.359399999999999942e+00 3.907770000000000188e+00 3.197890000000000121e+00 1.878030000000000088e+00 3.907690000000000108e+00 5.945399999999999574e-01 6.840760000000000396e+00 3.907669999999999977e+00 1.757160000000000055e+00 7.446439999999999948e+00 1.369550000000000045e+00 4.580919999999999881e+00 7.446439999999999948e+00 1.369550000000000045e+00 3.662469999999999892e+00 5.414369999999999905e+00 9.215820000000000789e+00 7.336700000000000443e-01 3.753610000000000113e+00 6.446150000000000269e+00 2.035340000000000149e+00 1.272270000000000012e+00 6.446220000000000283e+00 3.557449999999999779e+00 3.753620000000000179e+00 6.446139999999999759e+00 2.255739999999999856e+00 6.234980000000000189e+00 6.446220000000000283e+00 9.776899999999999480e-01 2.327409999999999979e+00 1.175394000000000005e+01 2.140330000000000066e+00 2.933110000000000106e+00 9.215799999999999770e+00 4.021860000000000213e+00 7.290140000000000065e+00 1.175393000000000043e+01 2.499789999999999957e+00 4.808779999999999610e+00 1.175402000000000058e+01 3.801460000000000061e+00 2.327430000000000110e+00 1.175394000000000005e+01 4.964080000000000048e+00 2.933110000000000106e+00 9.215790000000000148e+00 1.198099999999999943e+00 7.290140000000000065e+00 1.175394000000000005e+01 2.360730000000000217e+00 7.895830000000000126e+00 9.215799999999999770e+00 5.184490000000000265e+00 7.895830000000000126e+00 9.215799999999999770e+00 5.567639999999999922e+00 3.382509999999999906e+00 1.706203999999999965e+01 1.337250000000000050e+00 4.203000000000000291e+00 1.429238999999999926e+01 2.638889999999999958e+00 1.721649999999999903e+00 1.429246000000000016e+01 4.160999999999999588e+00 4.203009999999999913e+00 1.429238999999999926e+01 2.859300000000000175e+00 6.684370000000000367e+00 1.429246000000000016e+01 2.743869999999999809e+00 3.382509999999999906e+00 1.706203999999999965e+01 4.266020000000000145e+00 5.863760000000000083e+00 1.706206999999999852e+01 2.964290000000000092e+00 8.345219999999999416e+00 1.706203999999999965e+01 5.788050000000000139e+00 8.345219999999999416e+00 1.706204999999999927e+01 4.625420000000000087e+00 7.739530000000000243e+00 1.960019000000000133e+01 1.581260000000000110e+00 2.776800000000000157e+00 1.960019000000000133e+01 1.940800000000000081e+00 4.652389999999999581e+00 2.213863999999999876e+01 3.103349999999999831e+00 5.258180000000000298e+00 1.960026999999999830e+01 3.242459999999999898e+00 2.171040000000000081e+00 2.213871999999999929e+01 4.405009999999999870e+00 2.776800000000000157e+00 1.960018000000000171e+01 4.764560000000000350e+00 4.652389999999999581e+00 2.213863999999999876e+01 1.801660000000000039e+00 7.739530000000000243e+00 1.960019000000000133e+01 3.462860000000000049e+00 7.133750000000000036e+00 2.213871999999999929e+01 4.801330000000000098e+00 1.240915999999999997e+01 1.369550000000000045e+00 3.279300000000000104e+00 9.927690000000000126e+00 1.369560000000000111e+00 3.638700000000000045e+00 1.180348000000000042e+01 3.907680000000000042e+00 2.337029999999999941e+00 1.428485000000000049e+01 3.907779999999999809e+00 2.116629999999999789e+00 9.322129999999999583e+00 3.907779999999999809e+00 8.149499999999999522e-01 1.180347000000000079e+01 3.907690000000000108e+00 1.977570000000000050e+00 1.240916999999999959e+01 1.369550000000000045e+00 3.499709999999999877e+00 1.489042000000000066e+01 1.369550000000000045e+00 3.882859999999999978e+00 1.037707999999999942e+01 9.215809999999999391e+00 4.242270000000000429e+00 1.225286000000000008e+01 1.175393000000000043e+01 9.540800000000000392e-01 8.716329999999999245e+00 6.446139999999999759e+00 3.777839999999999865e+00 8.716340000000000643e+00 6.446150000000000269e+00 1.174490000000000034e+00 1.367906999999999940e+01 6.446139999999999759e+00 2.476140000000000008e+00 1.119771000000000072e+01 6.446220000000000283e+00 3.998240000000000016e+00 1.367905999999999977e+01 6.446150000000000269e+00 5.404889999999999972e+00 1.285856000000000066e+01 9.215799999999999770e+00 2.720180000000000042e+00 9.771509999999999252e+00 1.175402000000000058e+01 1.418509999999999938e+00 1.225286999999999971e+01 1.175393000000000043e+01 2.581119999999999859e+00 1.285856000000000066e+01 9.215790000000000148e+00 2.940599999999999881e+00 1.473423000000000016e+01 1.175403000000000020e+01 4.103270000000000195e+00 1.533980999999999995e+01 9.215809999999999391e+00 6.008449999999999847e+00 1.330794000000000032e+01 1.706203999999999965e+01 4.486430000000000362e+00 1.082648000000000010e+01 1.706205999999999889e+01 1.557630000000000070e+00 9.165739999999999554e+00 1.429238999999999926e+01 4.381389999999999674e+00 9.165739999999999554e+00 1.429240000000000066e+01 1.778049999999999908e+00 1.412843999999999944e+01 1.429238999999999926e+01 3.079709999999999948e+00 1.164710000000000001e+01 1.429246000000000016e+01 4.601799999999999891e+00 1.412845000000000084e+01 1.429238999999999926e+01 3.184680000000000177e+00 1.330794999999999995e+01 1.706204999999999927e+01 4.706819999999999560e+00 1.578919999999999924e+01 1.706204999999999927e+01 3.683260000000000201e+00 1.209648999999999930e+01 2.213870999999999967e+01 5.205370000000000275e+00 1.457784000000000013e+01 2.213863999999999876e+01 4.845830000000000304e+00 1.270224999999999937e+01 1.960018000000000171e+01 2.161189999999999944e+00 9.615119999999999223e+00 2.213863999999999876e+01 3.323749999999999982e+00 1.022089000000000070e+01 1.960026999999999830e+01 4.984969999999999679e+00 9.615109999999999602e+00 2.213864999999999839e+01 2.022060000000000191e+00 1.270224999999999937e+01 1.960018000000000171e+01 2.381600000000000161e+00 1.457784000000000013e+01 2.213863999999999876e+01 3.544150000000000134e+00 1.518360999999999983e+01 1.960028000000000148e+01 5.882670000000000066e+00 4.964970000000000105e+00 1.369560000000000111e+00 8.706419999999999604e+00 4.964970000000000105e+00 1.369560000000000111e+00 6.242070000000000007e+00 6.840749999999999886e+00 3.907680000000000042e+00 7.543750000000000178e+00 4.359390000000000320e+00 3.907760000000000122e+00 4.719990000000000130e+00 4.359390000000000320e+00 3.907770000000000188e+00 6.021659999999999791e+00 1.878030000000000088e+00 3.907680000000000042e+00 7.184280000000000221e+00 2.483719999999999928e+00 1.369550000000000045e+00 7.404690000000000438e+00 7.446439999999999948e+00 1.369539999999999980e+00 6.486220000000000319e+00 5.414369999999999905e+00 9.215809999999999391e+00 6.845620000000000260e+00 7.290149999999999686e+00 1.175394000000000005e+01 4.859099999999999753e+00 1.272270000000000012e+00 6.446209999999999773e+00 6.381199999999999761e+00 3.753620000000000179e+00 6.446150000000000269e+00 7.682850000000000179e+00 1.272270000000000012e+00 6.446209999999999773e+00 5.079489999999999839e+00 6.234980000000000189e+00 6.446220000000000283e+00 7.903260000000000396e+00 6.234989999999999810e+00 6.446209999999999773e+00 8.147309999999999164e+00 4.808790000000000120e+00 1.175402000000000058e+01 5.323550000000000004e+00 4.808769999999999989e+00 1.175403000000000020e+01 6.625219999999999665e+00 2.327430000000000110e+00 1.175394000000000005e+01 7.787840000000000096e+00 2.933110000000000106e+00 9.215799999999999770e+00 9.309979999999999478e+00 5.414369999999999905e+00 9.215809999999999391e+00 8.008240000000000691e+00 7.895830000000000126e+00 9.215799999999999770e+00 9.913539999999999353e+00 5.863749999999999574e+00 1.706205999999999889e+01 8.391400000000000858e+00 3.382499999999999840e+00 1.706205999999999889e+01 5.462659999999999627e+00 1.721649999999999903e+00 1.429246999999999979e+01 6.984770000000000145e+00 4.203000000000000291e+00 1.429237999999999964e+01 8.286410000000000053e+00 1.721659999999999968e+00 1.429246999999999979e+01 5.683060000000000223e+00 6.684370000000000367e+00 1.429246999999999979e+01 8.506819999999999382e+00 6.684379999999999988e+00 1.429246999999999979e+01 7.089769999999999683e+00 5.863760000000000083e+00 1.706205999999999889e+01 8.611810000000000187e+00 8.345230000000000814e+00 1.706204999999999927e+01 9.110369999999999635e+00 7.133770000000000167e+00 2.213871999999999929e+01 7.449180000000000135e+00 7.739530000000000243e+00 1.960020000000000095e+01 6.286620000000000097e+00 7.133759999999999657e+00 2.213870999999999967e+01 5.927109999999999879e+00 5.258180000000000298e+00 1.960026999999999830e+01 6.066230000000000011e+00 2.171050000000000146e+00 2.213871999999999929e+01 7.228780000000000427e+00 2.776800000000000157e+00 1.960018000000000171e+01 7.588320000000000398e+00 4.652400000000000091e+00 2.213863999999999876e+01 8.750859999999999417e+00 5.258180000000000298e+00 1.960028000000000148e+01 8.889969999999999928e+00 2.171040000000000081e+00 2.213871999999999929e+01 8.926819999999999311e+00 9.927709999999999368e+00 1.369560000000000111e+00 7.984560000000000102e+00 1.428484000000000087e+01 3.907760000000000122e+00 6.103060000000000151e+00 9.927699999999999747e+00 1.369560000000000111e+00 4.940389999999999837e+00 9.322110000000000340e+00 3.907770000000000188e+00 7.764160000000000394e+00 9.322119999999999962e+00 3.907779999999999809e+00 7.625090000000000146e+00 1.240917999999999921e+01 1.369550000000000045e+00 5.160800000000000054e+00 1.428484000000000087e+01 3.907779999999999809e+00 6.462460000000000093e+00 1.180345999999999940e+01 3.907690000000000108e+00 6.323470000000000368e+00 1.489042000000000066e+01 1.369550000000000045e+00 9.147220000000000795e+00 1.489043000000000028e+01 1.369550000000000045e+00 8.588110000000000355e+00 1.473423999999999978e+01 1.175403000000000020e+01 6.601600000000000357e+00 8.716340000000000643e+00 6.446139999999999759e+00 5.299909999999999677e+00 1.119772000000000034e+01 6.446220000000000283e+00 6.822009999999999685e+00 1.367906999999999940e+01 6.446150000000000269e+00 8.123680000000000234e+00 1.119769999999999932e+01 6.446220000000000283e+00 6.706629999999999647e+00 1.037709000000000081e+01 9.215809999999999391e+00 5.543960000000000221e+00 9.771499999999999631e+00 1.175403000000000020e+01 9.530379999999999185e+00 1.037707999999999942e+01 9.215799999999999770e+00 8.367710000000000647e+00 9.771509999999999252e+00 1.175403000000000020e+01 8.228659999999999641e+00 1.285854999999999926e+01 9.215799999999999770e+00 5.764350000000000307e+00 1.473423000000000016e+01 1.175402000000000058e+01 7.066029999999999589e+00 1.225286000000000008e+01 1.175394000000000005e+01 6.927030000000000243e+00 1.533980999999999995e+01 9.215799999999999770e+00 9.750790000000000290e+00 1.533980999999999995e+01 9.215820000000000789e+00 1.013394000000000084e+01 1.082647000000000048e+01 1.706205999999999889e+01 7.205149999999999721e+00 9.165729999999999933e+00 1.429240000000000066e+01 5.903470000000000439e+00 1.164709000000000039e+01 1.429246000000000016e+01 7.425559999999999938e+00 1.412845000000000084e+01 1.429240000000000066e+01 8.727220000000000866e+00 1.164709000000000039e+01 1.429246000000000016e+01 7.310190000000000410e+00 1.082646000000000086e+01 1.706206999999999852e+01 8.832200000000000273e+00 1.330794000000000032e+01 1.706204999999999927e+01 7.530569999999999986e+00 1.578918999999999961e+01 1.706206999999999852e+01 1.035435000000000016e+01 1.578919999999999924e+01 1.706206999999999852e+01 9.330780000000000740e+00 1.209648999999999930e+01 2.213870999999999967e+01 6.147499999999999964e+00 1.022089000000000070e+01 1.960028000000000148e+01 7.808720000000000105e+00 9.615130000000000621e+00 2.213864999999999839e+01 8.971259999999999124e+00 1.022090000000000032e+01 1.960026999999999830e+01 6.367910000000000181e+00 1.518361999999999945e+01 1.960028000000000148e+01 6.507019999999999804e+00 1.209648999999999930e+01 2.213870999999999967e+01 7.669579999999999842e+00 1.270223999999999975e+01 1.960019000000000133e+01 8.029130000000000322e+00 1.457784000000000013e+01 2.213863999999999876e+01 9.191679999999999851e+00 1.518361999999999945e+01 1.960028000000000148e+01