-2.721579576420000194e+03
-2.721633172870000180e+03
-2.721612786549999782e+03
-2.721519434740000179e+03
-2.721354950100000224e+03
-2.721122037470000123e+03
-2.720824262669999825e+03
-2.720465876430000208e+03
-2.720051802829999815e+03
-2.719587607630000093e+03
