1.654599999999999960e-01 6.464170000000000194e-01 1.859270000000000089e-01 -1.643699999999999883e-01 -6.504090000000000149e-01 -1.833110000000000017e-01 -1.650840000000000085e-01 -6.513630000000000253e-01 -1.808559999999999890e-01 1.629639999999999977e-01 6.488720000000000043e-01 1.853779999999999872e-01 -1.643300000000000038e-01 -6.504699999999999926e-01 -1.837650000000000117e-01 1.635500000000000009e-01 6.493649999999999700e-01 1.854439999999999977e-01 -1.648989999999999900e-01 -6.507490000000000219e-01 -1.850140000000000118e-01 -1.649859999999999938e-01 -6.503390000000000004e-01 -1.845489999999999908e-01 1.660149999999999959e-01 6.466319999999999846e-01 1.866170000000000051e-01 -1.647689999999999988e-01 -6.510479999999999601e-01 -1.821409999999999973e-01 -1.666960000000000108e-01 -6.516570000000000418e-01 -1.802070000000000061e-01 -1.645369999999999888e-01 -6.508099999999999996e-01 -1.827499999999999958e-01 -1.639619999999999966e-01 -6.518230000000000413e-01 -1.827840000000000020e-01 -1.644450000000000078e-01 -6.510949999999999793e-01 -1.832239999999999980e-01 1.647299999999999875e-01 6.456429999999999669e-01 1.844480000000000008e-01 1.637949999999999962e-01 6.477429999999999577e-01 1.855769999999999920e-01 1.642669999999999964e-01 6.482320000000000304e-01 1.847260000000000013e-01 1.644680000000000031e-01 6.468030000000000168e-01 1.846210000000000073e-01 1.649279999999999913e-01 6.471090000000000453e-01 1.855330000000000035e-01 -1.644369999999999998e-01 -6.518859999999999655e-01 -1.843839999999999923e-01 -1.661690000000000111e-01 -6.514760000000000550e-01 -1.805869999999999975e-01 1.639460000000000084e-01 6.488620000000000498e-01 1.855769999999999920e-01 -1.643600000000000061e-01 -6.508369999999999989e-01 -1.827920000000000100e-01 -1.647319999999999895e-01 -6.519740000000000535e-01 -1.836150000000000004e-01 1.639299999999999924e-01 6.494320000000000093e-01 1.858509999999999884e-01 -1.646710000000000118e-01 -6.508169999999999789e-01 -1.833710000000000062e-01 1.645610000000000128e-01 6.468789999999999818e-01 1.857789999999999997e-01 -1.652869999999999895e-01 -6.505670000000000064e-01 -1.835569999999999979e-01 -1.654269999999999907e-01 -6.521740000000000315e-01 -1.805910000000000015e-01 1.627709999999999990e-01 6.492440000000000433e-01 1.860449999999999882e-01 1.654289999999999927e-01 6.460960000000000036e-01 1.861089999999999967e-01 -1.645349999999999868e-01 -6.502409999999999579e-01 -1.831879999999999897e-01 1.636330000000000007e-01 6.488410000000000011e-01 1.865130000000000121e-01 -1.653900000000000092e-01 -6.513889999999999958e-01 -1.804449999999999943e-01 1.624919999999999976e-01 6.490320000000000533e-01 1.855630000000000057e-01 1.632760000000000045e-01 6.492679999999999563e-01 1.854770000000000030e-01 -1.670059999999999878e-01 -6.510479999999999601e-01 -1.807880000000000043e-01 -1.640939999999999899e-01 -6.505090000000000039e-01 -1.826069999999999915e-01 -1.668139999999999901e-01 -6.516520000000000090e-01 -1.799969999999999903e-01 -1.647129999999999983e-01 -6.508129999999999749e-01 -1.827840000000000020e-01 1.637679999999999969e-01 6.485950000000000326e-01 1.856669999999999987e-01 1.642550000000000121e-01 6.462980000000000391e-01 1.844399999999999928e-01 1.639190000000000091e-01 6.489690000000000181e-01 1.849619999999999875e-01 1.640119999999999911e-01 6.478460000000000329e-01 1.849560000000000093e-01 1.640159999999999951e-01 6.483219999999999539e-01 1.844510000000000038e-01 -1.641980000000000106e-01 -6.512080000000000091e-01 -1.828500000000000125e-01 -1.658989999999999909e-01 -6.514929999999999888e-01 -1.801550000000000096e-01 1.640880000000000116e-01 6.484729999999999661e-01 1.855169999999999875e-01 1.649289999999999923e-01 6.468230000000000368e-01 1.860809999999999964e-01 -1.643779999999999963e-01 -6.521360000000000490e-01 -1.839089999999999892e-01 1.634809999999999874e-01 6.490390000000000326e-01 1.861750000000000071e-01 -1.660619999999999874e-01 -6.512360000000000371e-01 -1.808059999999999945e-01 1.637290000000000134e-01 6.486439999999999984e-01 1.864099999999999924e-01 1.640030000000000099e-01 6.490259999999999918e-01 1.866250000000000131e-01 1.640109999999999901e-01 6.465459999999999541e-01 1.852350000000000108e-01 1.644390000000000018e-01 6.466539999999999511e-01 1.856810000000000127e-01 -1.660179999999999989e-01 -6.507150000000000434e-01 -1.803839999999999888e-01 -1.641559999999999964e-01 -6.512019999999999476e-01 -1.837090000000000112e-01 1.645270000000000066e-01 6.487309999999999466e-01 1.859099999999999919e-01 -1.665649999999999908e-01 -6.507870000000000044e-01 -1.810609999999999997e-01 -1.642440000000000011e-01 -6.510939999999999506e-01 -1.842620000000000091e-01 1.640790000000000026e-01 6.470270000000000188e-01 1.863499999999999879e-01 1.642460000000000031e-01 6.475109999999999477e-01 1.862699999999999911e-01 -1.657740000000000047e-01 -6.514630000000000143e-01 -1.795730000000000104e-01 -1.653409999999999880e-01 -6.515520000000000200e-01 -1.834510000000000030e-01 -1.656950000000000089e-01 -6.511770000000000058e-01 -1.836750000000000049e-01 -1.659629999999999994e-01 -6.520059999999999745e-01 -1.794550000000000034e-01 1.648830000000000018e-01 6.455950000000000299e-01 1.855030000000000012e-01 1.649559999999999915e-01 6.457840000000000247e-01 1.846009999999999873e-01 1.633300000000000030e-01 6.481409999999999672e-01 1.848130000000000051e-01 1.651179999999999870e-01 6.459570000000000034e-01 1.863670000000000049e-01 1.647349999999999925e-01 6.470350000000000268e-01 1.854860000000000120e-01 1.648570000000000035e-01 6.465359999999999996e-01 1.861579999999999901e-01 1.644329999999999958e-01 6.468429999999999458e-01 1.863319999999999976e-01 -1.660089999999999899e-01 -6.524060000000000414e-01 -1.808099999999999985e-01 -1.645969999999999933e-01 -6.512029999999999763e-01 -1.837119999999999864e-01 -1.659130000000000049e-01 -6.513139999999999485e-01 -1.794699999999999906e-01 1.636630000000000029e-01 6.491959999999999953e-01 1.851659999999999973e-01 -1.647599999999999898e-01 -6.506849999999999579e-01 -1.836280000000000134e-01 1.647689999999999988e-01 6.461609999999999854e-01 1.859280000000000099e-01 1.645820000000000061e-01 6.469679999999999875e-01 1.863769999999999871e-01 -1.658040000000000069e-01 -6.513989999999999503e-01 -1.803490000000000093e-01 1.639579999999999926e-01 6.463529999999999553e-01 1.856970000000000010e-01 1.647399999999999975e-01 6.483809999999999851e-01 1.866240000000000121e-01 1.643969999999999876e-01 6.468500000000000361e-01 1.863460000000000116e-01 -1.658050000000000079e-01 -6.506140000000000256e-01 -1.799810000000000021e-01 -1.639309999999999934e-01 -6.509260000000000046e-01 -1.834109999999999907e-01 -1.662440000000000029e-01 -6.509949999999999903e-01 -1.809900000000000120e-01 -1.662369999999999959e-01 -6.512259999999999716e-01 -1.816629999999999912e-01 1.648920000000000108e-01 6.484480000000000244e-01 1.858039999999999969e-01 -1.660389999999999922e-01 -6.508429999999999493e-01 -1.796359999999999901e-01 -1.657210000000000072e-01 -6.508659999999999446e-01 -1.792479999999999907e-01 -1.655050000000000132e-01 -6.503499999999999837e-01 -1.835340000000000027e-01 -1.656459999999999877e-01 -6.517180000000000195e-01 -1.796439999999999981e-01 -1.659200000000000119e-01 -6.511510000000000353e-01 -1.793720000000000037e-01 1.649359999999999993e-01 6.461810000000000054e-01 1.849709999999999965e-01 1.637679999999999969e-01 6.484609999999999541e-01 1.849619999999999875e-01 1.651849999999999985e-01 6.460909999999999709e-01 1.848259999999999903e-01 1.634210000000000107e-01 6.481999999999999984e-01 1.840519999999999934e-01 -1.656980000000000119e-01 -6.514069999999999583e-01 -1.798659999999999981e-01 -1.662470000000000059e-01 -6.524659999999999904e-01 -1.804139999999999910e-01 1.650419999999999943e-01 6.468049999999999633e-01 1.860340000000000049e-01 1.639750000000000096e-01 6.489129999999999621e-01 1.850620000000000043e-01 1.648920000000000108e-01 6.469089999999999563e-01 1.866760000000000086e-01 -1.658570000000000044e-01 -6.524860000000000104e-01 -1.808049999999999935e-01 -1.646299999999999986e-01 -6.508429999999999493e-01 -1.838690000000000047e-01 -1.659269999999999912e-01 -6.514269999999999783e-01 -1.791939999999999922e-01 1.635810000000000042e-01 6.491609999999999880e-01 1.860410000000000119e-01 1.300305999999999962e+00 1.149283000000000055e+00 -6.714900000000000313e-01 1.301598999999999950e+00 1.145782000000000078e+00 -6.718480000000000008e-01 -8.050000000000000515e-04 1.113999999999999973e-03 1.105000000000000079e-03 1.301614999999999966e+00 1.145561999999999969e+00 -6.721249999999999725e-01 -5.649999999999999641e-04 -3.350000000000000113e-04 9.240000000000000166e-04 5.770000000000000389e-04 -3.240000000000000150e-04 -4.929999999999999487e-04 -2.629999999999999959e-04 2.249999999999999938e-04 8.170000000000000179e-04 -5.379999999999999583e-04 -3.660000000000000059e-04 1.681999999999999901e-03 1.301828999999999903e+00 1.145551999999999904e+00 -6.717250000000000165e-01 1.301844999999999919e+00 1.145820999999999978e+00 -6.721179999999999932e-01 1.300046999999999953e+00 1.149334999999999996e+00 -6.751019999999999799e-01 -1.300111000000000017e+00 -1.144431999999999894e+00 6.695440000000000280e-01 -1.299431999999999920e+00 -1.143308999999999909e+00 6.675290000000000390e-01 -1.300885000000000069e+00 -1.144938000000000011e+00 6.697159999999999780e-01 -1.299633000000000038e+00 -1.145007000000000108e+00 6.678889999999999549e-01 -9.730000000000000151e-04 3.840000000000000097e-04 4.792000000000000252e-03 1.302132999999999985e+00 1.146729000000000109e+00 -6.754379999999999828e-01 -1.310000000000000129e-04 -1.969999999999999909e-04 4.897999999999999576e-03 4.840000000000000010e-04 -2.599999999999999772e-04 2.302999999999999926e-03 -3.249999999999999851e-04 6.449999999999999570e-04 4.993000000000000042e-03 1.302035000000000053e+00 1.146614999999999940e+00 -6.750460000000000349e-01 -1.051999999999999984e-03 -4.760000000000000234e-04 4.382999999999999743e-03 1.301898000000000000e+00 1.145113999999999965e+00 -6.741260000000000030e-01 1.302019000000000037e+00 1.144722999999999935e+00 -6.736290000000000333e-01 1.301148999999999889e+00 1.146203000000000083e+00 -6.737900000000000000e-01 -1.300364000000000075e+00 -1.143863000000000074e+00 6.671150000000000135e-01 -1.299560999999999966e+00 -1.143029999999999990e+00 6.663419999999999899e-01 -1.301123999999999947e+00 -1.144303999999999988e+00 6.673299999999999788e-01 -1.299765999999999977e+00 -1.143852000000000091e+00 6.671829999999999705e-01 1.301814999999999944e+00 1.146519000000000066e+00 -6.741409999999999902e-01 1.299679000000000029e+00 1.150325000000000042e+00 -6.737269999999999648e-01 1.301671000000000022e+00 1.146613000000000104e+00 -6.739370000000000083e-01 1.301042999999999950e+00 1.146397000000000110e+00 -6.735870000000000468e-01 -3.379999999999999758e-04 4.560000000000000251e-04 2.590999999999999987e-03 -8.059999999999999673e-04 2.030000000000000012e-04 2.096000000000000207e-03 -1.301285999999999943e+00 -1.144813999999999998e+00 6.696969999999999867e-01 1.140000000000000063e-04 1.160000000000000007e-04 6.560000000000000076e-04 -1.300081999999999960e+00 -1.143405000000000005e+00 6.676860000000000017e-01 -3.699999999999999947e-04 7.290000000000000473e-04 2.449999999999999921e-03 -1.301385999999999932e+00 -1.145041999999999893e+00 6.687969999999999748e-01 -7.010000000000000172e-04 -1.620000000000000075e-04 1.897999999999999948e-03 -1.299981000000000053e+00 -1.144366999999999912e+00 6.668049999999999811e-01 1.301754999999999995e+00 1.145796000000000037e+00 -6.724339999999999762e-01 1.300777999999999990e+00 1.150093000000000032e+00 -6.724090000000000344e-01 -2.739999999999999923e-04 -1.350000000000000017e-04 1.110000000000000011e-04 9.139999999999999904e-04 4.809999999999999823e-04 -1.299999999999999940e-03 7.940000000000000009e-04 -3.869999999999999742e-04 -1.747999999999999988e-03 -8.239999999999999712e-04 2.550000000000000183e-04 7.829999999999999504e-04 1.301982999999999890e+00 1.145335999999999910e+00 -6.718049999999999855e-01 1.300313000000000052e+00 1.149583000000000022e+00 -6.714440000000000408e-01 1.299867000000000106e+00 1.149259000000000031e+00 -6.737969999999999793e-01 -1.959999999999999937e-04 -1.900000000000000105e-05 5.275000000000000175e-03 -1.300375999999999976e+00 -1.145281999999999911e+00 6.691169999999999618e-01 -1.300931999999999977e+00 -1.145348000000000033e+00 6.684750000000000414e-01 -1.300372000000000083e+00 -1.143399000000000054e+00 6.681519999999999682e-01 -1.299519000000000091e+00 -1.144252999999999965e+00 6.665510000000000046e-01 -1.300740999999999925e+00 -1.143631999999999982e+00 6.680190000000000294e-01 1.301919999999999966e+00 1.146228999999999942e+00 -6.744210000000000482e-01 7.510000000000000399e-04 -1.502000000000000080e-03 2.629999999999999959e-03 -1.327999999999999970e-03 -5.439999999999999957e-04 5.451000000000000116e-03 1.302218000000000098e+00 1.146255999999999942e+00 -6.746739999999999959e-01 6.390000000000000280e-04 6.799999999999999946e-05 2.756000000000000203e-03 1.300289000000000028e+00 1.150932000000000066e+00 -6.749399999999999844e-01 1.301144999999999996e+00 1.146085999999999938e+00 -6.736569999999999503e-01 1.299671000000000021e+00 1.149610999999999938e+00 -6.728579999999999561e-01 -1.300356000000000067e+00 -1.144781999999999966e+00 6.682329999999999659e-01 -1.301177999999999946e+00 -1.145013000000000059e+00 6.687110000000000554e-01 -1.300459000000000032e+00 -1.144041000000000086e+00 6.678549999999999764e-01 -1.299623999999999890e+00 -1.143599999999999950e+00 6.675860000000000127e-01 -1.300967999999999902e+00 -1.144271999999999956e+00 6.684600000000000541e-01 1.301951000000000080e+00 1.145890999999999993e+00 -6.739500000000000490e-01 1.300159000000000065e+00 1.148717999999999906e+00 -6.733099999999999641e-01 -1.299307999999999907e+00 -1.144903999999999922e+00 6.674679999999999502e-01 -1.301388999999999907e+00 -1.145364999999999966e+00 6.691190000000000193e-01 -4.499999999999999877e-04 -1.740000000000000010e-04 2.530999999999999830e-03 -1.300872999999999946e+00 -1.144628999999999897e+00 6.683029999999999804e-01 3.530000000000000152e-04 1.999999999999999909e-06 4.400000000000000157e-04 -1.301215000000000011e+00 -1.144125000000000059e+00 6.683459999999999956e-01 -7.029999999999999574e-04 -7.600000000000000418e-04 2.200000000000000133e-03 -1.301166999999999963e+00 -1.145102000000000064e+00 6.695050000000000168e-01 5.839999999999999922e-04 1.379999999999999933e-04 1.749999999999999982e-04 1.300588999999999995e+00 1.148991000000000096e+00 -6.715130000000000265e-01 1.300210000000000088e+00 1.149226999999999999e+00 -6.720490000000000075e-01 -3.429999999999999889e-04 -3.190000000000000019e-04 1.397000000000000021e-03 6.579999999999999478e-04 -1.039999999999999936e-04 -6.840000000000000377e-04 6.099999999999999872e-05 3.139999999999999888e-04 -4.130000000000000099e-04 -2.429999999999999977e-04 2.460000000000000164e-04 1.312000000000000015e-03 1.302127000000000034e+00 1.145974999999999966e+00 -6.724029999999999729e-01 1.301681000000000088e+00 1.145777000000000045e+00 -6.718650000000000455e-01 1.300789999999999891e+00 1.149458000000000091e+00 -6.750300000000000189e-01 -2.020000000000000040e-04 -1.309999999999999967e-03 4.248000000000000040e-03 -1.299463000000000035e+00 -1.143089000000000022e+00 6.677530000000000410e-01 -1.300111999999999934e+00 -1.145016999999999951e+00 6.693829999999999503e-01 -1.300008000000000052e+00 -1.143194999999999961e+00 6.670399999999999663e-01 -1.299395999999999995e+00 -1.144675000000000109e+00 6.678340000000000387e-01 -1.300067000000000084e+00 -1.145154999999999923e+00 6.680249999999999799e-01 6.170000000000000354e-04 6.620000000000000450e-04 2.579999999999999828e-03 -3.350000000000000113e-04 3.260000000000000094e-04 2.514999999999999875e-03 -3.319999999999999926e-04 -3.609999999999999928e-04 4.773000000000000333e-03 1.301738999999999979e+00 1.146824000000000066e+00 -6.753810000000000091e-01 1.300855000000000095e+00 1.149394000000000027e+00 -6.748760000000000314e-01 1.301779999999999937e+00 1.144803999999999933e+00 -6.740739999999999510e-01 1.300016000000000060e+00 1.150881000000000043e+00 -6.741930000000000422e-01 1.301560000000000050e+00 1.146052999999999988e+00 -6.740150000000000308e-01 -1.299762000000000084e+00 -1.143547000000000091e+00 6.653609999999999802e-01 -1.300593000000000110e+00 -1.143472999999999962e+00 6.674339999999999717e-01 -1.300321999999999978e+00 -1.143860000000000099e+00 6.665250000000000341e-01 -1.299800000000000066e+00 -1.143818999999999919e+00 6.655240000000000045e-01 -1.300273999999999930e+00 -1.144430999999999976e+00 6.669059999999999988e-01 1.300650000000000084e+00 1.150784999999999947e+00 -6.739889999999999493e-01 1.301828999999999903e+00 1.145682000000000089e+00 -6.729100000000000081e-01 -1.300216000000000038e+00 -1.144716000000000067e+00 6.668819999999999748e-01 -2.079999999999999872e-04 1.240000000000000054e-04 2.552000000000000015e-03 -1.300297000000000036e+00 -1.144436999999999927e+00 6.670570000000000110e-01 3.460000000000000076e-04 -2.200000000000000078e-04 1.279999999999999942e-04 -1.300022000000000011e+00 -1.143613999999999908e+00 6.673029999999999795e-01 -7.140000000000000079e-04 2.849999999999999886e-04 2.753999999999999938e-03 -1.299808999999999992e+00 -1.144787999999999917e+00 6.687440000000000051e-01 8.130000000000000291e-04 4.970000000000000459e-04 4.060000000000000024e-04 -1.300079999999999902e+00 -1.143435999999999897e+00 6.675710000000000255e-01 1.300254000000000021e+00 1.149578999999999906e+00 -6.721030000000000060e-01 2.750000000000000166e-04 6.139999999999999625e-04 -1.374000000000000004e-03 1.300728000000000106e+00 1.149383000000000044e+00 -6.722770000000000135e-01 2.429999999999999977e-04 3.229999999999999907e-04 -1.881000000000000076e-03 2.700000000000000035e-04 -4.899999999999999842e-05 -1.838000000000000007e-03 1.301741000000000037e+00 1.145531999999999995e+00 -6.721979999999999622e-01 1.789999999999999870e-04 1.013000000000000012e-03 -1.309999999999999967e-03 -7.200000000000000182e-05 3.699999999999999811e-05 2.020000000000000040e-04 1.300524999999999931e+00 1.149394999999999945e+00 -6.715550000000000130e-01 1.300049000000000010e+00 1.149852000000000096e+00 -6.720469999999999500e-01 6.710000000000000469e-04 8.310000000000000329e-04 3.269000000000000204e-03 -1.300308999999999937e+00 -1.145907000000000009e+00 6.686940000000000106e-01 -1.299641999999999964e+00 -1.143915999999999933e+00 6.666069999999999496e-01 -1.300173999999999941e+00 -1.143737000000000004e+00 6.675189999999999735e-01 -1.300189999999999957e+00 -1.144012000000000029e+00 6.661759999999999904e-01 1.300550000000000095e+00 1.149165999999999910e+00 -6.736140000000000461e-01 -2.539999999999999940e-04 -8.570000000000000144e-04 2.743000000000000212e-03 1.300774000000000097e+00 1.148986999999999981e+00 -6.733010000000000383e-01 7.619999999999999820e-04 -4.409999999999999858e-04 3.011999999999999920e-03 1.301638000000000073e+00 1.146330999999999989e+00 -6.745320000000000205e-01 -1.389999999999999905e-04 3.840000000000000097e-04 3.370000000000000166e-03 -2.860000000000000129e-04 -7.669999999999999951e-04 4.928000000000000089e-03 1.300346999999999920e+00 1.150946999999999942e+00 -6.745659999999999989e-01 1.300801000000000096e+00 1.150895999999999919e+00 -6.745069999999999677e-01 1.300092000000000025e+00 1.150033000000000083e+00 -6.731449999999999934e-01 -1.300338999999999912e+00 -1.144524000000000097e+00 6.684759999999999591e-01 -1.300135999999999958e+00 -1.143742999999999954e+00 6.667870000000000186e-01 -1.300542000000000087e+00 -1.143523000000000067e+00 6.686020000000000296e-01 -1.300303999999999904e+00 -1.143855999999999984e+00 6.674269999999999925e-01 1.300289999999999946e+00 1.150512999999999897e+00 -6.729829999999999979e-01 1.301455000000000028e+00 1.145477999999999996e+00 -6.732339999999999991e-01 1.300832999999999906e+00 1.149296000000000095e+00 -6.739180000000000170e-01 1.299790999999999919e+00 1.149221000000000048e+00 -6.736640000000000406e-01 -1.300667000000000018e+00 -1.144749000000000017e+00 6.679000000000000492e-01 6.130000000000000466e-04 -3.759999999999999779e-04 -3.600000000000000227e-04 -1.300146999999999942e+00 -1.144355999999999929e+00 6.685389999999999944e-01 6.750000000000000357e-04 -1.730000000000000038e-04 5.419999999999999471e-04 5.410000000000000312e-04 -3.409999999999999945e-04 -2.439999999999999949e-04 -1.300210000000000088e+00 -1.145221000000000044e+00 6.683930000000000149e-01 -4.009999999999999893e-04 -2.390000000000000089e-04 2.469999999999999973e-03 -1.300254999999999939e+00 -1.144978000000000051e+00 6.692559999999999620e-01 1.789999999999999870e-04 5.969999999999999829e-04 2.779999999999999811e-04