7.373107249136769497e+02 -2.240871624469276071e+02 -2.937703845212080296e+02 -2.240871624469276071e+02 8.273816480804706543e+02 -2.245317590238238949e+02 -2.937703845212080296e+02 -2.245317590238238949e+02 4.903306928904566320e+01
7.375275940616303387e+02 -2.238204675010549636e+02 -2.935487162354111774e+02 -2.238204675010549636e+02 8.270610693784250316e+02 -2.241331526404700298e+02 -2.935487162354111774e+02 -2.241331526404700298e+02 4.832928220962268284e+01
7.371910614689159047e+02 -2.235290356863752379e+02 -2.933082775765045085e+02 -2.235290356863752379e+02 8.261144162769389823e+02 -2.236881113558198990e+02 -2.933082775765045085e+02 -2.236881113558198990e+02 4.708437844123151450e+01
7.379113212647205273e+02 -2.231830530538918254e+02 -2.930321511203525802e+02 -2.231830530538918254e+02 8.261366516646307900e+02 -2.231578344183514275e+02 -2.930321511203525802e+02 -2.231578344183514275e+02 4.685407541321433911e+01
7.378648122454652594e+02 -2.228801885440406068e+02 -2.927912677536920683e+02 -2.228801885440406068e+02 8.254523576084175147e+02 -2.226267607128240229e+02 -2.927912677536920683e+02 -2.226267607128240229e+02 4.581599780933581911e+01
7.383748735096240807e+02 -2.225494371521260177e+02 -2.925251101630220205e+02 -2.225494371521260177e+02 8.253019537401726211e+02 -2.220414882497980216e+02 -2.925251101630220205e+02 -2.220414882497980216e+02 4.541828084148961153e+01
7.387027343011386620e+02 -2.222262272625368666e+02 -2.922643817128466708e+02 -2.222262272625368666e+02 8.249797073840502435e+02 -2.214349254030571217e+02 -2.922643817128466708e+02 -2.214349254030571217e+02 4.476748810273193158e+01
7.393168201207153061e+02 -2.218904914378813658e+02 -2.919891817311819295e+02 -2.218904914378813658e+02 8.249236186185977431e+02 -2.207873753250044899e+02 -2.919891817311819295e+02 -2.207873753250044899e+02 4.442435901166893331e+01
7.398578997507039503e+02 -2.215469361685542538e+02 -2.917071628972916528e+02 -2.215469361685542538e+02 8.247689714972017327e+02 -2.201075283463296159e+02 -2.917071628972916528e+02 -2.201075283463296159e+02 4.396588384695503748e+01
7.405734345266240553e+02 -2.211885758369224391e+02 -2.914019080832636064e+02 -2.211885758369224391e+02 8.247892612884704704e+02 -2.193907335651069843e+02 -2.914019080832636064e+02 -2.193907335651069843e+02 4.368907179968265808e+01
