-4.702367768600000204e+02
-4.702367773999999940e+02
-4.702367784599999823e+02
-4.702367800600000010e+02
-4.702367822300000171e+02
-4.702367845800000055e+02
