-1.722329966777252364e-01 -4.177101299650723409e-02 2.955200099242533823e-02 5.680000107968190964e-03 -1.319999568947788273e-03 1.473999969965737863e-03 -1.619999820400377683e-04 -2.020000117666469869e-04 4.860000010959896139e-04 1.251000109250622163e-03 -1.338999903942167651e-03 1.445999994432156308e-03 1.670700101200505230e-02 -1.444499875100786930e-02 -1.457900007779145551e-02 -1.505199921008599194e-02 -1.146000115228597641e-02 -1.391499990546801041e-02 -1.122999994883997193e-03 -9.100008525241968279e-05 -3.199999937103045365e-04 6.829999987264768428e-04 1.100005157555578504e-05 -8.000000378104893969e-05 1.273000052276240020e-03 -7.249999041851598386e-04 -4.630000063025905351e-04 -1.249996356509038887e-04 -5.025000012293574965e-03 -2.842999994290663825e-03 -1.315999937916946354e-03 -8.870001004343989548e-04 -9.059999918498667752e-04 -1.229999513437924187e-04 -6.440000093115097208e-04 -8.999998677781325619e-06 1.332000296667343753e-03 -3.880999898691125851e-03 5.699999965241921195e-04 -4.960000237831606838e-04 3.059999623715216072e-04 -1.159999975678078848e-04 2.999998349019478280e-05 1.910000018953272188e-04 -3.740000003563810323e-04 3.960000740175524257e-04 -8.899999688367799412e-04 1.214999998703137143e-03 3.741991776044451424e-03 1.101110003017859856e-01 1.879899986935741271e-02 1.028000015484097779e-03 1.230000097383823201e-03 1.965799999309696816e-02 -3.939999339812100460e-04 6.439999909623340263e-04 2.078400000153154611e-02 6.556000340526122253e-03 -3.037999484124558145e-03 2.006599996684641299e-02 -8.369994894616506267e-04 -5.061000040180508620e-03 2.314800000967543250e-02 4.200004359478805142e-04 -4.109999945595734991e-03 2.266500000178704385e-02 -1.235999917954019216e-03 4.079999269520283539e-04 2.045400000641500043e-02 1.354000038376419832e-03 9.160001218844623060e-04 1.950299999161114392e-02 1.475000180913174164e-03 -9.279998684078967974e-04 2.005999999278517201e-02 6.700002254742277443e-04 -1.507999929164394182e-03 2.018599999780800250e-02 1.175999982708514011e-03 1.673000108708952004e-03 1.978999999183752787e-02 9.300022739176132865e-05 -1.499999972346566018e-03 2.064300000098497068e-02 3.724600159573522584e-02 -2.127899718553659392e-02 -2.464000184337444659e-03 3.394000128724418593e-03 -2.369997232604489803e-04 2.007299998150234577e-02 8.129999916535642903e-04 1.591000081751610439e-03 2.028699999392314518e-02 2.614299937167609972e-02 1.102900201444391957e-02 3.728399984467780509e-02 3.934899880802945893e-02 1.630000298335865586e-02 7.391999766517520255e-03 1.876999869592504413e-03 2.440001216987717147e-04 -2.028200001060449439e-02 2.280000003165589227e-03 -1.535999848012015992e-03 -2.047200001105099754e-02 2.406700103058980952e-02 -1.598299821205528479e-02 -3.228500011688131832e-02 1.190007426228090914e-04 -1.235600002571992512e-02 -3.475899998831474130e-02 3.345999818252160581e-03 1.001000233869415090e-03 -1.921100001946931049e-02 6.529997303593457290e-04 2.093000029237207082e-03 -2.017200000569511348e-02 -7.359999818208071490e-04 -1.620000074545634768e-03 -1.890299999431920702e-02 -6.970002137466770704e-04 1.298999926384207743e-03 -2.092499999745020198e-02 8.179998309353123370e-04 7.790000419329599956e-04 -1.995500000529336695e-02 -2.192000048934830084e-03 -8.450001862015626801e-04 -2.044299998705642607e-02 1.741000025282992206e-03 -1.790999888264300155e-03 -1.995900000782108163e-02 2.828000001431611125e-03 -1.445999805648667249e-03 -1.955300001416577713e-02 -3.930001342972570290e-04 3.019999501079856201e-04 -2.019199999813236016e-02 4.738999678110276947e-03 2.801000338497174405e-03 -1.993700002895644821e-02 3.840999648471868973e-03 3.014000268132955261e-03 -2.238800002421238028e-02
-1.721459966796767271e-01 -4.174601298993838722e-02 2.954100099192014106e-02 5.676000107735779121e-03 -1.316999569251308322e-03 1.472999969984820556e-03 -1.629999818131469937e-04 -2.050000118422772087e-04 4.860000011045061304e-04 1.249000109088321819e-03 -1.336999904095426085e-03 1.443999994441198288e-03 1.669700101156782954e-02 -1.443899875176117564e-02 -1.457600007774225055e-02 -1.504199921028528432e-02 -1.145700115152467960e-02 -1.390999990552620712e-02 -1.121999995099848052e-03 -8.800008517479166945e-05 -3.179999937188210044e-04 6.819999987375164902e-04 1.100005150192328039e-05 -7.800000377552908230e-05 1.273000052054869139e-03 -7.219999041841609986e-04 -4.620000063055872456e-04 -1.259996361692759608e-04 -5.018000012367206976e-03 -2.840999994292136340e-03 -1.312999937841316349e-03 -8.880001002075082073e-04 -9.059999918654274616e-04 -1.239999514139028373e-04 -6.430000093861410783e-04 -7.999998673260345965e-06 1.329000296505043494e-03 -3.878999898920014542e-03 5.679999965387539903e-04 -4.940000237075303779e-04 3.049999625227820975e-04 -1.159999975778487218e-04 2.999998349019478280e-05 1.910000018953272188e-04 -3.740000003563810323e-04 3.960000739364023326e-04 -8.889999688377789007e-04 1.213999998702138461e-03 3.735991779781805671e-03 1.100610003013242355e-01 1.879099986944047368e-02 1.024000015493489691e-03 1.229000097069315751e-03 1.964599999312004880e-02 -3.939999342318279319e-04 6.459999909443540998e-04 2.076600000152954706e-02 6.552000340249553023e-03 -3.034999484436068980e-03 2.005699996686549635e-02 -8.379994894152673979e-04 -5.063000040275117235e-03 2.312900000968294914e-02 4.220004359572725183e-04 -4.110999945456461115e-03 2.265300000177700168e-02 -1.236999918079328183e-03 4.089999268674082418e-04 2.044500000641952253e-02 1.352000038125801898e-03 9.180001217152218649e-04 1.948499999162018465e-02 1.473000180824856524e-03 -9.279998685751393193e-04 2.004399999279620967e-02 6.680002252142178002e-04 -1.504999929321647984e-03 2.017999999781604561e-02 1.177999982863646693e-03 1.670000108847227065e-03 1.977699999182948656e-02 9.200022733104291982e-05 -1.499999972433184014e-03 2.063200000099048997e-02 3.721300159462837681e-02 -2.126399718802739897e-02 -2.459000184170272597e-03 3.393000128641620976e-03 -2.369997233510623966e-04 2.005799998150786453e-02 8.129999916684761902e-04 1.590000081740622784e-03 2.027599999392414379e-02 2.611799937245118386e-02 1.101700201252919266e-02 3.725999984482779304e-02 3.931799880895745641e-02 1.628700298100413044e-02 7.381999766701620794e-03 1.871999869653222758e-03 2.440001213316080855e-04 -2.027100001057689782e-02 2.279000003231827776e-03 -1.535999848075659743e-03 -2.046000001104547605e-02 2.404600102994390240e-02 -1.597299821362354114e-02 -3.226500011677538998e-02 1.190007424787161561e-04 -1.235300002570494105e-02 -3.474399998831773778e-02 3.339999818615400039e-03 9.970002334266214045e-04 -1.920000001943219375e-02 6.479997304035046198e-04 2.093000028867047016e-03 -2.016400000566751644e-02 -7.339999817010180476e-04 -1.621000074386383383e-03 -1.889499999432924654e-02 -6.910002138372191901e-04 1.300999926848976857e-03 -2.091399999748531566e-02 8.169998309259203029e-04 7.800000418693163766e-04 -1.994300000528884467e-02 -2.196000048949741431e-03 -8.440001864930960548e-04 -2.043199998703534512e-02 1.740000025164851116e-03 -1.788999888333937111e-03 -1.995300000781755762e-02 2.827000001346589159e-03 -1.443999805712310952e-03 -1.954100001416225404e-02 -3.930001338473476050e-04 2.969999501209710422e-04 -2.017899999812736156e-02 4.732999678635817567e-03 2.795000338056378205e-03 -1.992400002891733801e-02 3.834999648960417482e-03 3.009000267699150997e-03 -2.236800002417426575e-02
-1.719599966835040350e-01 -4.169701297589313571e-02 2.951900099084450030e-02 5.671000107578999354e-03 -1.314999569630458326e-03 1.471999970010422123e-03 -1.579999818131469806e-04 -2.050000114641259224e-04 4.860000010769068425e-04 1.247000109158432355e-03 -1.337999904247685499e-03 1.442999994453236920e-03 1.668000101040742478e-02 -1.442299875303790051e-02 -1.456700007766439410e-02 -1.502399921121327746e-02 -1.144400115015334514e-02 -1.389999990563854822e-02 -1.121999995251108566e-03 -8.600008517479168859e-05 -3.179999937208187553e-04 6.829999988942969192e-04 9.000051578552422104e-06 -7.700000377905118361e-05 1.273000052119459616e-03 -7.229999041861587738e-04 -4.640000063045883645e-04 -1.239996364552374607e-04 -5.014000012212949629e-03 -2.837999994307171224e-03 -1.311999938051647751e-03 -8.850001001288813592e-04 -9.029999918739440136e-04 -1.259999514139028317e-04 -6.430000095374015928e-04 -7.999998662220635220e-06 1.327000296278152674e-03 -3.875999899071275092e-03 5.679999965467970357e-04 -4.930000236319000964e-04 3.039999625984123846e-04 -1.159999975823696957e-04 3.199998341456451316e-05 1.920000020465877305e-04 -3.740000003684196338e-04 3.960000739308824967e-04 -8.889999688387777762e-04 1.212999998702138545e-03 3.723991783482167878e-03 1.100120003004156632e-01 1.878999986955566179e-02 1.023000015541520582e-03 1.228000096988690875e-03 1.964099999312656636e-02 -3.929999342003565543e-04 6.449999910119933290e-04 2.075800000152502531e-02 6.548000340345614539e-03 -3.036999484748579246e-03 2.004699996688957472e-02 -8.369994894815057295e-04 -5.063000040211473700e-03 2.311700000967742766e-02 4.220004358744746547e-04 -4.110999945471444789e-03 2.263800000177700056e-02 -1.236999918263707822e-03 4.109999268614149834e-04 2.043900000641752160e-02 1.351000038168313115e-03 9.170001216335983306e-04 1.947899999162670467e-02 1.472000180786217595e-03 -9.279998686577617048e-04 2.003699999280172950e-02 6.670002251645390902e-04 -1.504999929406268012e-03 2.017099999782156691e-02 1.176999982917197474e-03 1.669000108767601173e-03 1.977299999183600512e-02 9.000022729240395221e-05 -1.499999972591436548e-03 2.062500000100152969e-02 3.716300159317813268e-02 -2.124299719178394247e-02 -2.434000183915256254e-03 3.390000128602981781e-03 -2.369997235849452967e-04 2.005099998152442414e-02 8.129999918456881679e-04 1.587000081731632832e-03 2.026699999392713933e-02 2.607299937407863907e-02 1.099300200909186613e-02 3.722599984510015919e-02 3.926699881073229814e-02 1.626200297712601314e-02 7.360999767008106348e-03 1.870999869579240355e-03 2.460001212699621334e-04 -2.025700001057337274e-02 2.275000003135765631e-03 -1.533999848368191969e-03 -2.045000001102539530e-02 2.400700102912630210e-02 -1.595999821654315448e-02 -3.223500011657310510e-02 1.220007423456628977e-04 -1.235000002546107062e-02 -3.472699998833729540e-02 3.330999818967599752e-03 9.930002327549389794e-04 -1.919100001937852282e-02 6.449997306099635288e-04 2.091000028650145167e-03 -2.015400000564895530e-02 -7.279999814410082230e-04 -1.624000073926608551e-03 -1.888899999435936922e-02 -6.900002136843109892e-04 1.299999926938591238e-03 -2.089999999748983622e-02 8.179998311268595274e-04 7.780000419539365728e-04 -1.993400000529236757e-02 -2.196000048580982154e-03 -8.480001864811095380e-04 -2.041999998703135019e-02 1.738000025317759135e-03 -1.789999888471213284e-03 -1.993900000780551851e-02 2.825000001407307251e-03 -1.443999805852583728e-03 -1.953000001415121367e-02 -3.900001338622594320e-04 2.979999503588494142e-04 -2.016799999814491984e-02 4.727999678988017811e-03 2.791000337687216809e-03 -1.991500002888573970e-02 3.825999650426640131e-03 2.991000267037457420e-03 -2.234900002410660641e-02
-1.716569966897862898e-01 -4.161701295301912379e-02 2.947700098909207533e-02 5.657000107416698502e-03 -1.312999570691279630e-03 1.469999970085702351e-03 -1.619999819699273740e-04 -2.030000117676458596e-04 4.850000010969885192e-04 1.244000109001651986e-03 -1.335999904475574989e-03 1.441999994467798706e-03 1.664500100871373414e-02 -1.439899875566298497e-02 -1.454500007749517237e-02 -1.499499921239963451e-02 -1.142700114794209000e-02 -1.388199990581560558e-02 -1.115999995240068857e-03 -8.600008471901238053e-05 -3.159999937539378846e-04 6.829999988021071000e-04 1.000005157555578784e-05 -8.000000378005006423e-05 1.269000052065908822e-03 -7.219999044846842767e-04 -4.600000062835077992e-04 -1.229996371949804742e-04 -5.004000012134323695e-03 -2.834999994322679687e-03 -1.310999937987057141e-03 -8.860001000552487687e-04 -9.049999918784648600e-04 -1.229999515596434917e-04 -6.410000093095118969e-04 -6.999998680777954211e-06 1.325000295829890972e-03 -3.869999899221536910e-03 5.689999965518433706e-04 -4.880000235617897161e-04 3.029999629755647712e-04 -1.169999976089700918e-04 3.199998343112408182e-05 1.920000020495843569e-04 -3.710000003684196693e-04 3.940000739954730336e-04 -8.899999689920359575e-04 1.210999998714177043e-03 3.724991790065872513e-03 1.099240003004783028e-01 1.877699986963803774e-02 1.017000016144914941e-03 1.219000096520925398e-03 1.962699999316867491e-02 -3.929999342831544179e-04 6.449999909970101971e-04 2.074300000152502765e-02 6.538000340035926908e-03 -3.033999485519864661e-03 2.003199996694177837e-02 -8.359994895919028567e-04 -5.063000040155821169e-03 2.309700000967190858e-02 4.240004357861569496e-04 -4.110999945336165848e-03 2.262200000176596212e-02 -1.236999918200765115e-03 4.089999268454329816e-04 2.042300000641952135e-02 1.350000038247815577e-03 9.150001215449827521e-04 1.946599999163422384e-02 1.470000180530079770e-03 -9.259998688280009129e-04 2.001799999281077269e-02 6.670002252274819052e-04 -1.506999929422250068e-03 2.015499999782356319e-02 1.174999983153480207e-03 1.665000108604354273e-03 1.976099999185104011e-02 9.200022729627606625e-05 -1.500999972453161439e-03 2.061200000099148652e-02 3.709500159059508223e-02 -2.120599719688784010e-02 -2.395000183576864641e-03 3.387000128433513644e-03 -2.359997238288169812e-04 2.003399998153998496e-02 8.089999918606000789e-04 1.586000081418124149e-03 2.025599999395021750e-02 2.601699937630396267e-02 1.096000200480762646e-02 3.717699984544223235e-02 3.919599881357370419e-02 1.622100297170931543e-02 7.313999767440969128e-03 1.866999869693509529e-03 2.450001209744332082e-04 -2.025000001055029392e-02 2.273000003131893463e-03 -1.532999848506467295e-03 -2.043700001101535560e-02 2.394800102675523693e-02 -1.592499822095539905e-02 -3.218500011628239177e-02 1.190007422937598035e-04 -1.234800002566998137e-02 -3.470899998832273348e-02 3.315999819810571889e-03 9.820002316224829293e-04 -1.918900001928473820e-02 6.449997307352724717e-04 2.090000028659134805e-03 -2.014500000564795751e-02 -7.179999812141174250e-04 -1.627000073170305943e-03 -1.888899999441157052e-02 -6.880002133265914442e-04 1.295999927099840843e-03 -2.088999999749688308e-02 8.149998312466485073e-04 7.770000417350367804e-04 -1.992600000527480764e-02 -2.196000048444633757e-03 -8.490001864701219323e-04 -2.040899998703035040e-02 1.740000025647879447e-03 -1.793999888314958598e-03 -1.993400000781256343e-02 2.821000001386876448e-03 -1.442999806145116087e-03 -1.952000001413013372e-02 -3.910001336558004202e-04 2.959999502932079713e-04 -2.015799999813740195e-02 4.718999679491476737e-03 2.785000337015534552e-03 -1.990600002883007036e-02 3.822999652763433686e-03 2.962000266836537464e-03 -2.232300002406107861e-02
-1.712759966974685411e-01 -4.151901292425293905e-02 2.942800098689112021e-02 5.643000106870727124e-03 -1.305999571753100122e-03 1.466999970155988178e-03 -1.529999818297065836e-04 -2.050000110889712624e-04 4.830000010493075359e-04 1.233000108741642148e-03 -1.332999905313501324e-03 1.435999994525520617e-03 1.661700100639844357e-02 -1.436699875776165265e-02 -1.452600007737258128e-02 -1.495799921328347208e-02 -1.141400114512578987e-02 -1.386399990603282527e-02 -1.121999995273187910e-03 -8.600008517878719044e-05 -3.219999937208187983e-04 6.799999987651157837e-04 1.100005135565714995e-05 -7.300000376448937030e-05 1.266000052027269843e-03 -7.219999047185671768e-04 -4.670000062669482448e-04 -1.229996375990833322e-04 -4.998000012125333562e-03 -2.825999994328673263e-03 -1.306999938261978840e-03 -8.820000997477333736e-04 -8.999999919045398008e-04 -1.229999513548321447e-04 -6.440000093135074717e-04 -1.099999867778132510e-05 1.328000294997958106e-03 -3.858999898994645763e-03 5.689999965242961786e-04 -4.820000233459386871e-04 2.999999634273485993e-04 -1.189999976390926107e-04 3.299998362489572028e-05 1.890000021192213698e-04 -3.770000003709428620e-04 3.950000743625846182e-04 -8.949999689184034643e-04 1.208999998713651590e-03 3.716991797758078999e-03 1.098220002998692713e-01 1.877299986978408705e-02 1.014000016630168090e-03 1.212000096286043561e-03 1.961899999319222793e-02 -3.929999344675340562e-04 6.469999909910169929e-04 2.073700000152303019e-02 6.524000340174499098e-03 -3.036999486594670668e-03 2.001599996702204884e-02 -8.349994896857404220e-04 -5.063000040097171903e-03 2.308000000966638904e-02 4.270004357789893620e-04 -4.111999945124258232e-03 2.260700000175040053e-02 -1.236999918390664643e-03 4.109999268384407936e-04 2.041600000641752288e-02 1.344000038231255977e-03 9.150001210882045821e-04 1.946299999166734365e-02 1.466000180469361532e-03 -9.259998691415095720e-04 2.000699999283285166e-02 6.690002248106917621e-04 -1.501999929277981777e-03 2.014799999780752734e-02 1.174999983002219693e-03 1.667000108604354321e-03 1.976099999184904518e-02 8.500022730566809558e-05 -1.501999972994559878e-03 2.060000000103112336e-02 3.700200158754887031e-02 -2.116199720387051258e-02 -2.344000183107468587e-03 3.385000128243614501e-03 -2.339997239870696567e-04 2.002699998154902628e-02 8.069999923679324876e-04 1.579000081262868288e-03 2.025199999396825115e-02 2.593699937977636885e-02 1.091000199870126829e-02 3.712099984593376922e-02 3.910799881704774689e-02 1.617200296501190154e-02 7.271999767975661708e-03 1.863999869420235539e-03 2.500001207665210833e-04 -2.023100001053872860e-02 2.266000002593089591e-03 -1.524999849023892396e-03 -2.042500001098470491e-02 2.387600102459062901e-02 -1.589199822634084283e-02 -3.212500011591792187e-02 1.260007421347550166e-04 -1.234400002511460044e-02 -3.468299998836536779e-02 3.305999820426653701e-03 9.740002308681780215e-04 -1.918700001922154716e-02 6.399997311575827573e-04 2.085000028288974943e-03 -2.013700000561536446e-02 -7.129999804837664108e-04 -1.636000072783164779e-03 -1.887999999443018204e-02 -6.810002130814933868e-04 1.293999927646233587e-03 -2.087299999753352425e-02 8.149998313498781066e-04 7.760000417400311334e-04 -1.992100000527381037e-02 -2.197000047876583075e-03 -8.560001865387600146e-04 -2.040199998701783951e-02 1.737000025887457805e-03 -1.795999888525867411e-03 -1.991800000779401017e-02 2.816000000951301464e-03 -1.435999806506286320e-03 -1.950300001410952555e-02 -3.860001334493413168e-04 2.939999506813480721e-04 -2.014799999816300341e-02 4.705999680767799544e-03 2.769000336044327975e-03 -1.989400002874232645e-02 3.810999655565049105e-03 2.927000265956943015e-03 -2.229500002395987807e-02
-1.706649967123405887e-01 -4.132901287813374458e-02 2.933700098332870168e-02 5.625000106345188523e-03 -1.299999573127429879e-03 1.453999970249352305e-03 -1.479999819368082352e-04 -2.030000107028289780e-04 4.910000010197105831e-04 1.219000108487152236e-03 -1.329999906377319231e-03 1.430999994599801897e-03 1.655200100347588646e-02 -1.432499876263167160e-02 -1.448000007705574181e-02 -1.490699921549223754e-02 -1.138100114121670670e-02 -1.381199990634730118e-02 -1.096999995315699195e-03 -8.500008328203748173e-05 -3.159999938598140215e-04 6.679999988484903138e-04 8.000050422123266807e-06 -9.900000369525446429e-05 1.255000050689652384e-03 -7.029999055325203286e-04 -4.490000062252084631e-04 -1.389996392535569104e-04 -4.977000013347403565e-03 -2.837999994261331590e-03 -1.298999936926585694e-03 -8.990000991337014158e-04 -8.909999919317177115e-04 -1.209999524986779919e-04 -6.280000091502604964e-04 1.000001295196940342e-06 1.333000296408981544e-03 -3.876999898607504710e-03 5.779999965146767052e-04 -4.840000230875765022e-04 2.959999632680970923e-04 -1.269999976240573740e-04 2.399998254399271887e-05 2.030000014345535134e-04 -3.810000003352484216e-04 4.020000746579381026e-04 -8.999999684039748085e-04 1.193999998680006806e-03 3.713991805446413812e-03 1.097210002996513722e-01 1.878199986990152989e-02 9.900000184585584610e-04 1.186000094445945410e-03 1.959399999335067685e-02 -3.959999337570379598e-04 6.359999907421510189e-04 2.071500000155057641e-02 6.532000339340918692e-03 -3.026999486003612624e-03 2.000199996696790106e-02 -8.369994903349412159e-04 -5.055000040256422793e-03 2.307200000966943762e-02 4.160004369487868060e-04 -4.128999945977166776e-03 2.258600000182809861e-02 -1.240999918609810623e-03 4.119999265099489184e-04 2.039000000643860153e-02 1.358000037856976934e-03 9.190001221340427916e-04 1.944999999158606580e-02 1.472000180249638133e-03 -9.219998686727447993e-04 2.002199999279574011e-02 6.370002251170850003e-04 -1.506999931711135296e-03 2.013499999798916071e-02 1.169999983705548134e-03 1.655000108189244460e-03 1.972399999188862579e-02 9.900022725046949421e-05 -1.501999971945725031e-03 2.059000000095384877e-02 3.689800158292487475e-02 -2.109399721164216882e-02 -2.250000182601327118e-03 3.365000128933679207e-03 -2.439997255116612795e-04 2.001499998166941449e-02 7.919999916894845905e-04 1.586000080101444528e-03 2.022499999404405585e-02 2.584599938236938066e-02 1.086900199172702135e-02 3.702899984647702730e-02 3.898199882067750893e-02 1.611700295538659455e-02 7.175999768726101617e-03 1.855999869929215573e-03 2.440001201714677966e-04 -2.022100001048857815e-02 2.251000003031959195e-03 -1.529999850147358530e-03 -2.041400001089691690e-02 2.378700101980268933e-02 -1.582299823299402469e-02 -3.204700011549557748e-02 1.140007433575265951e-04 -1.235900002600618178e-02 -3.466699998828415286e-02 3.267999822073959851e-03 9.520002279912316264e-04 -1.919000001898981539e-02 6.479997306574179381e-04 2.093000028912995504e-03 -2.011800000566751553e-02 -6.779999817010183127e-04 -1.621000070151088976e-03 -1.889499999463835692e-02 -7.060002125261299714e-04 1.285999925746487190e-03 -2.088199999738753893e-02 8.069998325301386624e-04 7.620000411569644288e-04 -1.989900000521566820e-02 -2.187000047172183402e-03 -8.640001857644775528e-04 -2.038399998706504762e-02 1.761000025881937847e-03 -1.795999886711740004e-03 -1.991900000792648159e-02 2.801000002192857545e-03 -1.452999807648731271e-03 -1.951100001400974879e-02 -4.010001334918524354e-04 2.949999495528874902e-04 -2.014199999808120520e-02 4.695999680830164995e-03 2.770000335312996879e-03 -1.986900002868812951e-02 3.820999659707577031e-03 2.875000266751203109e-03 -2.225700002396313604e-02
