1.033665985000000020e+01 0.000000000000000000e+00 0.000000000000000000e+00 0.000000000000000000e+00 1.790362082000000044e+01 0.000000000000000000e+00 0.000000000000000000e+00 0.000000000000000000e+00 1.683197047000000168e+01
1.033665985000000020e+01 0.000000000000000000e+00 0.000000000000000000e+00 0.000000000000000000e+00 1.790362082000000044e+01 0.000000000000000000e+00 0.000000000000000000e+00 0.000000000000000000e+00 1.683197047000000168e+01
1.033665985000000020e+01 0.000000000000000000e+00 0.000000000000000000e+00 0.000000000000000000e+00 1.790362082000000044e+01 0.000000000000000000e+00 0.000000000000000000e+00 0.000000000000000000e+00 1.683197047000000168e+01
1.033665985000000020e+01 0.000000000000000000e+00 0.000000000000000000e+00 0.000000000000000000e+00 1.790362082000000044e+01 0.000000000000000000e+00 0.000000000000000000e+00 0.000000000000000000e+00 1.683197047000000168e+01
1.033665985000000020e+01 0.000000000000000000e+00 0.000000000000000000e+00 0.000000000000000000e+00 1.790362082000000044e+01 0.000000000000000000e+00 0.000000000000000000e+00 0.000000000000000000e+00 1.683197047000000168e+01
