1.399999999999999877e-04 1.790355999999999881e+01 4.018239999999999590e+00 1.722909999999999942e+00 2.983880000000000088e+00 4.018239999999999590e+00 1.499999999999999869e-04 3.978540000000000187e+00 1.570629999999999971e+00 1.722920000000000007e+00 9.946099999999999941e-01 1.570640000000000036e+00 3.445689999999999920e+00 1.790355999999999881e+01 4.018239999999999590e+00 5.168470000000000120e+00 2.983880000000000088e+00 4.018239999999999590e+00 3.445699999999999985e+00 3.978540000000000187e+00 1.570629999999999971e+00 5.168479999999999741e+00 9.946099999999999941e-01 1.570640000000000036e+00 6.891239999999999810e+00 1.790355999999999881e+01 4.018239999999999590e+00 8.614020000000000010e+00 2.983880000000000088e+00 4.018239999999999590e+00 6.891250000000000320e+00 3.978540000000000187e+00 1.570629999999999971e+00 8.614029999999999632e+00 9.946099999999999941e-01 1.570640000000000036e+00 1.399999999999999877e-04 5.967810000000000059e+00 4.018239999999999590e+00 1.722909999999999942e+00 8.951760000000000161e+00 4.018239999999999590e+00 1.499999999999999869e-04 9.946419999999999817e+00 1.570629999999999971e+00 1.722920000000000007e+00 6.962480000000000224e+00 1.570640000000000036e+00 3.445689999999999920e+00 5.967810000000000059e+00 4.018239999999999590e+00 5.168470000000000120e+00 8.951760000000000161e+00 4.018239999999999590e+00 3.445699999999999985e+00 9.946419999999999817e+00 1.570629999999999971e+00 5.168479999999999741e+00 6.962480000000000224e+00 1.570640000000000036e+00 6.891239999999999810e+00 5.967810000000000059e+00 4.018239999999999590e+00 8.614020000000000010e+00 8.951760000000000161e+00 4.018239999999999590e+00 6.891250000000000320e+00 9.946419999999999817e+00 1.570629999999999971e+00 8.614029999999999632e+00 6.962480000000000224e+00 1.570640000000000036e+00 1.399999999999999877e-04 1.193567999999999962e+01 4.018239999999999590e+00 1.722909999999999942e+00 1.491962999999999973e+01 4.018239999999999590e+00 1.499999999999999869e-04 1.591428999999999938e+01 1.570629999999999971e+00 1.722920000000000007e+00 1.293035000000000068e+01 1.570640000000000036e+00 3.445689999999999920e+00 1.193567999999999962e+01 4.018239999999999590e+00 5.168470000000000120e+00 1.491962999999999973e+01 4.018239999999999590e+00 3.445699999999999985e+00 1.591428999999999938e+01 1.570629999999999971e+00 5.168479999999999741e+00 1.293035000000000068e+01 1.570640000000000036e+00 6.891239999999999810e+00 1.193567999999999962e+01 4.018239999999999590e+00 8.614020000000000010e+00 1.491962999999999973e+01 4.018239999999999590e+00 6.891250000000000320e+00 1.591428999999999938e+01 1.570629999999999971e+00 8.614029999999999632e+00 1.293035000000000068e+01 1.570640000000000036e+00 1.399999999999999877e-04 1.790355999999999881e+01 9.628899999999999793e+00 1.722909999999999942e+00 2.983880000000000088e+00 9.628899999999999793e+00 1.499999999999999869e-04 3.978540000000000187e+00 7.181289999999999729e+00 1.722920000000000007e+00 9.946099999999999941e-01 7.181300000000000239e+00 3.445689999999999920e+00 1.790355999999999881e+01 9.628899999999999793e+00 5.168470000000000120e+00 2.983880000000000088e+00 9.628899999999999793e+00 3.445699999999999985e+00 3.978540000000000187e+00 7.181289999999999729e+00 5.168479999999999741e+00 9.946099999999999941e-01 7.181300000000000239e+00 6.891239999999999810e+00 1.790355999999999881e+01 9.628899999999999793e+00 8.614020000000000010e+00 2.983880000000000088e+00 9.628899999999999793e+00 6.891250000000000320e+00 3.978540000000000187e+00 7.181289999999999729e+00 8.614029999999999632e+00 9.946099999999999941e-01 7.181300000000000239e+00 1.399999999999999877e-04 5.967810000000000059e+00 9.628899999999999793e+00 1.722909999999999942e+00 8.951760000000000161e+00 9.628899999999999793e+00 1.499999999999999869e-04 9.946419999999999817e+00 7.181289999999999729e+00 1.722920000000000007e+00 6.962480000000000224e+00 7.181300000000000239e+00 3.445689999999999920e+00 5.967810000000000059e+00 9.628899999999999793e+00 5.168470000000000120e+00 8.951760000000000161e+00 9.628899999999999793e+00 3.445699999999999985e+00 9.946419999999999817e+00 7.181289999999999729e+00 5.168479999999999741e+00 6.962480000000000224e+00 7.181300000000000239e+00 6.891239999999999810e+00 5.967810000000000059e+00 9.628899999999999793e+00 8.614020000000000010e+00 8.951760000000000161e+00 9.628899999999999793e+00 6.891250000000000320e+00 9.946419999999999817e+00 7.181289999999999729e+00 8.614029999999999632e+00 6.962480000000000224e+00 7.181300000000000239e+00 1.399999999999999877e-04 1.193567999999999962e+01 9.628899999999999793e+00 1.722909999999999942e+00 1.491962999999999973e+01 9.628899999999999793e+00 1.499999999999999869e-04 1.591428999999999938e+01 7.181289999999999729e+00 1.722920000000000007e+00 1.293035000000000068e+01 7.181300000000000239e+00 3.445689999999999920e+00 1.193567999999999962e+01 9.628899999999999793e+00 5.168470000000000120e+00 1.491962999999999973e+01 9.628899999999999793e+00 3.445699999999999985e+00 1.591428999999999938e+01 7.181289999999999729e+00 5.168479999999999741e+00 1.293035000000000068e+01 7.181300000000000239e+00 6.891239999999999810e+00 1.193567999999999962e+01 9.628899999999999793e+00 8.614020000000000010e+00 1.491962999999999973e+01 9.628899999999999793e+00 6.891250000000000320e+00 1.591428999999999938e+01 7.181289999999999729e+00 8.614029999999999632e+00 1.293035000000000068e+01 7.181300000000000239e+00 1.399999999999999877e-04 1.790355999999999881e+01 1.523954999999999949e+01 1.722909999999999942e+00 2.983880000000000088e+00 1.523956000000000088e+01 1.499999999999999869e-04 3.978540000000000187e+00 1.279194000000000031e+01 1.722920000000000007e+00 9.946099999999999941e-01 1.279195999999999955e+01 3.445689999999999920e+00 1.790355999999999881e+01 1.523954999999999949e+01 5.168470000000000120e+00 2.983880000000000088e+00 1.523956000000000088e+01 3.445699999999999985e+00 3.978540000000000187e+00 1.279194000000000031e+01 5.168479999999999741e+00 9.946099999999999941e-01 1.279195999999999955e+01 6.891239999999999810e+00 1.790355999999999881e+01 1.523954999999999949e+01 8.614020000000000010e+00 2.983880000000000088e+00 1.523956000000000088e+01 6.891250000000000320e+00 3.978540000000000187e+00 1.279194000000000031e+01 8.614029999999999632e+00 9.946099999999999941e-01 1.279195999999999955e+01 1.399999999999999877e-04 5.967810000000000059e+00 1.523954999999999949e+01 1.722909999999999942e+00 8.951760000000000161e+00 1.523956000000000088e+01 1.499999999999999869e-04 9.946419999999999817e+00 1.279194000000000031e+01 1.722920000000000007e+00 6.962480000000000224e+00 1.279195999999999955e+01 3.445689999999999920e+00 5.967810000000000059e+00 1.523954999999999949e+01 5.168470000000000120e+00 8.951760000000000161e+00 1.523956000000000088e+01 3.445699999999999985e+00 9.946419999999999817e+00 1.279194000000000031e+01 5.168479999999999741e+00 6.962480000000000224e+00 1.279195999999999955e+01 6.891239999999999810e+00 5.967810000000000059e+00 1.523954999999999949e+01 8.614020000000000010e+00 8.951760000000000161e+00 1.523956000000000088e+01 6.891250000000000320e+00 9.946419999999999817e+00 1.279194000000000031e+01 8.614029999999999632e+00 6.962480000000000224e+00 1.279195999999999955e+01 1.399999999999999877e-04 1.193567999999999962e+01 1.523954999999999949e+01 1.722909999999999942e+00 1.491962999999999973e+01 1.523956000000000088e+01 1.499999999999999869e-04 1.591428999999999938e+01 1.279194000000000031e+01 1.722920000000000007e+00 1.293035000000000068e+01 1.279195999999999955e+01 3.445689999999999920e+00 1.193567999999999962e+01 1.523954999999999949e+01 5.168470000000000120e+00 1.491962999999999973e+01 1.523956000000000088e+01 3.445699999999999985e+00 1.591428999999999938e+01 1.279194000000000031e+01 5.168479999999999741e+00 1.293035000000000068e+01 1.279195999999999955e+01 6.891239999999999810e+00 1.193567999999999962e+01 1.523954999999999949e+01 8.614020000000000010e+00 1.491962999999999973e+01 1.523956000000000088e+01 6.891250000000000320e+00 1.591428999999999938e+01 1.279194000000000031e+01 8.614029999999999632e+00 1.293035000000000068e+01 1.279195999999999955e+01 1.399999999999999877e-04 1.989219999999999988e+00 2.794270000000000032e+00 1.399999999999999877e-04 3.978619999999999823e+00 4.735649999999999693e+00 1.722930000000000073e+00 2.983810000000000073e+00 8.529700000000000060e-01 1.499999999999999869e-04 1.790350000000000108e+01 8.529600000000000515e-01 1.722920000000000007e+00 4.973200000000000287e+00 2.794259999999999966e+00 1.722920000000000007e+00 9.946700000000000541e-01 4.735660000000000203e+00 3.445689999999999920e+00 1.989219999999999988e+00 2.794270000000000032e+00 3.445689999999999920e+00 3.978619999999999823e+00 4.735649999999999693e+00 5.168479999999999741e+00 2.983810000000000073e+00 8.529700000000000060e-01 3.445699999999999985e+00 1.790350000000000108e+01 8.529600000000000515e-01 5.168470000000000120e+00 4.973200000000000287e+00 2.794259999999999966e+00 5.168470000000000120e+00 9.946700000000000541e-01 4.735660000000000203e+00 6.891250000000000320e+00 1.989219999999999988e+00 2.794270000000000032e+00 6.891250000000000320e+00 3.978619999999999823e+00 4.735649999999999693e+00 8.614029999999999632e+00 2.983810000000000073e+00 8.529700000000000060e-01 6.891259999999999941e+00 1.790350000000000108e+01 8.529600000000000515e-01 8.614029999999999632e+00 4.973200000000000287e+00 2.794259999999999966e+00 8.614020000000000010e+00 9.946700000000000541e-01 4.735660000000000203e+00 1.399999999999999877e-04 7.957089999999999996e+00 2.794270000000000032e+00 1.399999999999999877e-04 9.946490000000000720e+00 4.735649999999999693e+00 1.722930000000000073e+00 8.951679999999999637e+00 8.529700000000000060e-01 1.499999999999999869e-04 5.967749999999999666e+00 8.529600000000000515e-01 1.722920000000000007e+00 1.094106999999999985e+01 2.794259999999999966e+00 1.722920000000000007e+00 6.962539999999999729e+00 4.735660000000000203e+00 3.445689999999999920e+00 7.957089999999999996e+00 2.794270000000000032e+00 3.445689999999999920e+00 9.946490000000000720e+00 4.735649999999999693e+00 5.168479999999999741e+00 8.951679999999999637e+00 8.529700000000000060e-01 3.445699999999999985e+00 5.967749999999999666e+00 8.529600000000000515e-01 5.168470000000000120e+00 1.094106999999999985e+01 2.794259999999999966e+00 5.168470000000000120e+00 6.962539999999999729e+00 4.735660000000000203e+00 6.891250000000000320e+00 7.957089999999999996e+00 2.794270000000000032e+00 6.891250000000000320e+00 9.946490000000000720e+00 4.735649999999999693e+00 8.614029999999999632e+00 8.951679999999999637e+00 8.529700000000000060e-01 6.891259999999999941e+00 5.967749999999999666e+00 8.529600000000000515e-01 8.614029999999999632e+00 1.094106999999999985e+01 2.794259999999999966e+00 8.614020000000000010e+00 6.962539999999999729e+00 4.735660000000000203e+00 1.399999999999999877e-04 1.392497000000000007e+01 2.794270000000000032e+00 1.399999999999999877e-04 1.591436000000000028e+01 4.735649999999999693e+00 1.722930000000000073e+00 1.491956000000000060e+01 8.529700000000000060e-01 1.499999999999999869e-04 1.193562999999999974e+01 8.529600000000000515e-01 1.722920000000000007e+00 1.690894000000000119e+01 2.794259999999999966e+00 1.722920000000000007e+00 1.293041999999999980e+01 4.735660000000000203e+00 3.445689999999999920e+00 1.392497000000000007e+01 2.794270000000000032e+00 3.445689999999999920e+00 1.591436000000000028e+01 4.735649999999999693e+00 5.168479999999999741e+00 1.491956000000000060e+01 8.529700000000000060e-01 3.445699999999999985e+00 1.193562999999999974e+01 8.529600000000000515e-01 5.168470000000000120e+00 1.690894000000000119e+01 2.794259999999999966e+00 5.168470000000000120e+00 1.293041999999999980e+01 4.735660000000000203e+00 6.891250000000000320e+00 1.392497000000000007e+01 2.794270000000000032e+00 6.891250000000000320e+00 1.591436000000000028e+01 4.735649999999999693e+00 8.614029999999999632e+00 1.491956000000000060e+01 8.529700000000000060e-01 6.891259999999999941e+00 1.193562999999999974e+01 8.529600000000000515e-01 8.614029999999999632e+00 1.690894000000000119e+01 2.794259999999999966e+00 8.614020000000000010e+00 1.293041999999999980e+01 4.735660000000000203e+00 1.399999999999999877e-04 1.989219999999999988e+00 8.404930000000000234e+00 1.399999999999999877e-04 3.978619999999999823e+00 1.034631000000000078e+01 1.722930000000000073e+00 2.983810000000000073e+00 6.463630000000000209e+00 1.499999999999999869e-04 1.790350000000000108e+01 6.463619999999999699e+00 1.722920000000000007e+00 4.973200000000000287e+00 8.404920000000000613e+00 1.722920000000000007e+00 9.946700000000000541e-01 1.034631000000000078e+01 3.445689999999999920e+00 1.989219999999999988e+00 8.404930000000000234e+00 3.445689999999999920e+00 3.978619999999999823e+00 1.034631000000000078e+01 5.168479999999999741e+00 2.983810000000000073e+00 6.463630000000000209e+00 3.445699999999999985e+00 1.790350000000000108e+01 6.463619999999999699e+00 5.168470000000000120e+00 4.973200000000000287e+00 8.404920000000000613e+00 5.168470000000000120e+00 9.946700000000000541e-01 1.034631000000000078e+01 6.891250000000000320e+00 1.989219999999999988e+00 8.404930000000000234e+00 6.891250000000000320e+00 3.978619999999999823e+00 1.034631000000000078e+01 8.614029999999999632e+00 2.983810000000000073e+00 6.463630000000000209e+00 6.891259999999999941e+00 1.790350000000000108e+01 6.463619999999999699e+00 8.614029999999999632e+00 4.973200000000000287e+00 8.404920000000000613e+00 8.614020000000000010e+00 9.946700000000000541e-01 1.034631000000000078e+01 1.399999999999999877e-04 7.957089999999999996e+00 8.404930000000000234e+00 1.399999999999999877e-04 9.946490000000000720e+00 1.034631000000000078e+01 1.722930000000000073e+00 8.951679999999999637e+00 6.463630000000000209e+00 1.499999999999999869e-04 5.967749999999999666e+00 6.463619999999999699e+00 1.722920000000000007e+00 1.094106999999999985e+01 8.404920000000000613e+00 1.722920000000000007e+00 6.962539999999999729e+00 1.034631000000000078e+01 3.445689999999999920e+00 7.957089999999999996e+00 8.404930000000000234e+00 3.445689999999999920e+00 9.946490000000000720e+00 1.034631000000000078e+01 5.168479999999999741e+00 8.951679999999999637e+00 6.463630000000000209e+00 3.445699999999999985e+00 5.967749999999999666e+00 6.463619999999999699e+00 5.168470000000000120e+00 1.094106999999999985e+01 8.404920000000000613e+00 5.168470000000000120e+00 6.962539999999999729e+00 1.034631000000000078e+01 6.891250000000000320e+00 7.957089999999999996e+00 8.404930000000000234e+00 6.891250000000000320e+00 9.946490000000000720e+00 1.034631000000000078e+01 8.614029999999999632e+00 8.951679999999999637e+00 6.463630000000000209e+00 6.891259999999999941e+00 5.967749999999999666e+00 6.463619999999999699e+00 8.614029999999999632e+00 1.094106999999999985e+01 8.404920000000000613e+00 8.614020000000000010e+00 6.962539999999999729e+00 1.034631000000000078e+01 1.399999999999999877e-04 1.392497000000000007e+01 8.404930000000000234e+00 1.399999999999999877e-04 1.591436000000000028e+01 1.034631000000000078e+01 1.722930000000000073e+00 1.491956000000000060e+01 6.463630000000000209e+00 1.499999999999999869e-04 1.193562999999999974e+01 6.463619999999999699e+00 1.722920000000000007e+00 1.690894000000000119e+01 8.404920000000000613e+00 1.722920000000000007e+00 1.293041999999999980e+01 1.034631000000000078e+01 3.445689999999999920e+00 1.392497000000000007e+01 8.404930000000000234e+00 3.445689999999999920e+00 1.591436000000000028e+01 1.034631000000000078e+01 5.168479999999999741e+00 1.491956000000000060e+01 6.463630000000000209e+00 3.445699999999999985e+00 1.193562999999999974e+01 6.463619999999999699e+00 5.168470000000000120e+00 1.690894000000000119e+01 8.404920000000000613e+00 5.168470000000000120e+00 1.293041999999999980e+01 1.034631000000000078e+01 6.891250000000000320e+00 1.392497000000000007e+01 8.404930000000000234e+00 6.891250000000000320e+00 1.591436000000000028e+01 1.034631000000000078e+01 8.614029999999999632e+00 1.491956000000000060e+01 6.463630000000000209e+00 6.891259999999999941e+00 1.193562999999999974e+01 6.463619999999999699e+00 8.614029999999999632e+00 1.690894000000000119e+01 8.404920000000000613e+00 8.614020000000000010e+00 1.293041999999999980e+01 1.034631000000000078e+01 1.399999999999999877e-04 1.989219999999999988e+00 1.401558999999999955e+01 1.399999999999999877e-04 3.978619999999999823e+00 1.595697000000000010e+01 1.722930000000000073e+00 2.983810000000000073e+00 1.207428999999999952e+01 1.499999999999999869e-04 1.790350000000000108e+01 1.207427999999999990e+01 1.722920000000000007e+00 4.973200000000000287e+00 1.401557000000000031e+01 1.722920000000000007e+00 9.946700000000000541e-01 1.595697000000000010e+01 3.445689999999999920e+00 1.989219999999999988e+00 1.401558999999999955e+01 3.445689999999999920e+00 3.978619999999999823e+00 1.595697000000000010e+01 5.168479999999999741e+00 2.983810000000000073e+00 1.207428999999999952e+01 3.445699999999999985e+00 1.790350000000000108e+01 1.207427999999999990e+01 5.168470000000000120e+00 4.973200000000000287e+00 1.401557000000000031e+01 5.168470000000000120e+00 9.946700000000000541e-01 1.595697000000000010e+01 6.891250000000000320e+00 1.989219999999999988e+00 1.401558999999999955e+01 6.891250000000000320e+00 3.978619999999999823e+00 1.595697000000000010e+01 8.614029999999999632e+00 2.983810000000000073e+00 1.207428999999999952e+01 6.891259999999999941e+00 1.790350000000000108e+01 1.207427999999999990e+01 8.614029999999999632e+00 4.973200000000000287e+00 1.401557000000000031e+01 8.614020000000000010e+00 9.946700000000000541e-01 1.595697000000000010e+01 1.399999999999999877e-04 7.957089999999999996e+00 1.401558999999999955e+01 1.399999999999999877e-04 9.946490000000000720e+00 1.595697000000000010e+01 1.722930000000000073e+00 8.951679999999999637e+00 1.207428999999999952e+01 1.499999999999999869e-04 5.967749999999999666e+00 1.207427999999999990e+01 1.722920000000000007e+00 1.094106999999999985e+01 1.401557000000000031e+01 1.722920000000000007e+00 6.962539999999999729e+00 1.595697000000000010e+01 3.445689999999999920e+00 7.957089999999999996e+00 1.401558999999999955e+01 3.445689999999999920e+00 9.946490000000000720e+00 1.595697000000000010e+01 5.168479999999999741e+00 8.951679999999999637e+00 1.207428999999999952e+01 3.445699999999999985e+00 5.967749999999999666e+00 1.207427999999999990e+01 5.168470000000000120e+00 1.094106999999999985e+01 1.401557000000000031e+01 5.168470000000000120e+00 6.962539999999999729e+00 1.595697000000000010e+01 6.891250000000000320e+00 7.957089999999999996e+00 1.401558999999999955e+01 6.891250000000000320e+00 9.946490000000000720e+00 1.595697000000000010e+01 8.614029999999999632e+00 8.951679999999999637e+00 1.207428999999999952e+01 6.891259999999999941e+00 5.967749999999999666e+00 1.207427999999999990e+01 8.614029999999999632e+00 1.094106999999999985e+01 1.401557000000000031e+01 8.614020000000000010e+00 6.962539999999999729e+00 1.595697000000000010e+01 1.399999999999999877e-04 1.392497000000000007e+01 1.401558999999999955e+01 1.399999999999999877e-04 1.591436000000000028e+01 1.595697000000000010e+01 1.722930000000000073e+00 1.491956000000000060e+01 1.207428999999999952e+01 1.499999999999999869e-04 1.193562999999999974e+01 1.207427999999999990e+01 1.722920000000000007e+00 1.690894000000000119e+01 1.401557000000000031e+01 1.722920000000000007e+00 1.293041999999999980e+01 1.595697000000000010e+01 3.445689999999999920e+00 1.392497000000000007e+01 1.401558999999999955e+01 3.445689999999999920e+00 1.591436000000000028e+01 1.595697000000000010e+01 5.168479999999999741e+00 1.491956000000000060e+01 1.207428999999999952e+01 3.445699999999999985e+00 1.193562999999999974e+01 1.207427999999999990e+01 5.168470000000000120e+00 1.690894000000000119e+01 1.401557000000000031e+01 5.168470000000000120e+00 1.293041999999999980e+01 1.595697000000000010e+01 6.891250000000000320e+00 1.392497000000000007e+01 1.401558999999999955e+01 6.891250000000000320e+00 1.591436000000000028e+01 1.595697000000000010e+01 8.614029999999999632e+00 1.491956000000000060e+01 1.207428999999999952e+01 6.891259999999999941e+00 1.193562999999999974e+01 1.207427999999999990e+01 8.614029999999999632e+00 1.690894000000000119e+01 1.401557000000000031e+01 8.614020000000000010e+00 1.293041999999999980e+01 1.595697000000000010e+01