-2.747185836950000066e+03
-2.747154253900000185e+03
-2.747061301199999889e+03
-2.746907140339999842e+03
-2.746692599729999984e+03
