-1.150000000000000035e-04 -7.680000000000000195e-04 2.159999999999999919e-04 1.669999999999999935e-04 -8.769999999999999584e-04 1.510000000000000112e-04 -3.950000000000000061e-04 2.049999999999999956e-04 -1.801999999999999999e-03 1.959999999999999937e-04 -4.209999999999999875e-04 -1.843999999999999936e-03 3.200000000000000262e-04 -5.649999999999999641e-04 4.600000000000000004e-05 5.039999999999999992e-04 -9.460000000000000093e-04 2.959999999999999849e-04 2.130000000000000003e-04 2.900000000000000017e-05 -1.675999999999999972e-03 1.010000000000000020e-04 -2.500000000000000052e-04 -2.236999999999999839e-03 -3.100000000000000135e-05 -3.589999999999999984e-04 1.050000000000000044e-04 -4.659999999999999971e-04 -8.080000000000000160e-04 2.599999999999999772e-04 -1.230000000000000082e-04 -2.210000000000000050e-04 -1.614999999999999899e-03 -6.099999999999999737e-04 -2.079999999999999872e-04 -1.971999999999999795e-03 -1.090000000000000067e-04 -3.339999999999999870e-04 -1.299999999999999886e-04 1.569999999999999944e-04 -7.529999999999999801e-04 -2.680000000000000090e-04 -1.000000000000000082e-05 -1.800000000000000046e-05 -1.672000000000000092e-03 -1.389999999999999905e-04 2.700000000000000035e-04 -1.925000000000000062e-03 1.669999999999999935e-04 -4.479999999999999933e-04 -1.060000000000000016e-04 -8.100000000000000375e-05 -7.680000000000000195e-04 -1.090000000000000067e-04 -1.840000000000000001e-04 -5.500000000000000196e-05 -1.536999999999999955e-03 -2.310000000000000042e-04 1.689999999999999879e-04 -1.675999999999999972e-03 1.320000000000000101e-04 -8.760000000000000425e-04 2.559999999999999884e-04 9.600000000000000243e-05 -9.290000000000000297e-04 -2.469999999999999865e-04 -1.279999999999999942e-04 3.020000000000000223e-04 -1.680999999999999986e-03 9.200000000000000007e-05 1.119999999999999983e-04 -1.717999999999999909e-03 1.379999999999999933e-04 -7.389999999999999651e-04 -3.020000000000000223e-04 -4.800000000000000122e-05 -8.249999999999999955e-04 -1.930000000000000021e-04 -1.010000000000000020e-04 -1.820000000000000057e-04 -1.482999999999999943e-03 -1.939999999999999993e-04 -2.420000000000000005e-04 -1.423000000000000003e-03 2.039999999999999984e-04 -8.520000000000000013e-04 7.899999999999999579e-05 6.399999999999999710e-05 -9.979999999999999722e-04 -2.290000000000000098e-04 -1.299999999999999920e-05 1.240000000000000054e-04 -1.876000000000000063e-03 1.469999999999999953e-04 -2.750000000000000166e-04 -1.505000000000000044e-03 -1.469999999999999953e-04 -6.740000000000000114e-04 -2.509999999999999753e-04 1.640000000000000019e-04 -7.699999999999999597e-04 -3.490000000000000263e-04 -1.620000000000000075e-04 1.979999999999999881e-04 -1.734999999999999997e-03 -2.550000000000000183e-04 -2.860000000000000129e-04 -1.590000000000000050e-03 2.130000000000000003e-04 1.700000000000000122e-04 -8.500000000000000611e-05 -6.620000000000000450e-04 -1.443999999999999971e-03 1.010000000000000020e-04 -3.040000000000000167e-04 -1.340000000000000045e-04 -1.229999999999999974e-03 -1.399999999999999877e-04 9.600000000000000243e-05 -1.333999999999999899e-03 -2.680000000000000090e-04 -1.659999999999999963e-04 2.739999999999999923e-04 2.300000000000000002e-05 -1.448999999999999984e-03 -6.419999999999999925e-04 1.369999999999999961e-04 -1.550000000000000000e-04 -1.614999999999999899e-03 6.000000000000000152e-05 1.550000000000000000e-04 -1.763000000000000027e-03 -9.600000000000000243e-05 -3.530000000000000152e-04 1.649999999999999991e-04 5.509999999999999490e-04 -9.610000000000000486e-04 -1.679999999999999907e-04 1.379999999999999933e-04 1.150000000000000035e-04 -1.889999999999999970e-03 6.499999999999999431e-05 2.190000000000000106e-04 -1.647000000000000026e-03 -5.050000000000000235e-04 -1.257000000000000088e-03 2.530000000000000239e-04 -4.300000000000000165e-05 -2.530000000000000239e-04 1.079999999999999960e-04 2.439999999999999949e-04 2.579999999999999828e-04 -2.083999999999999915e-03 -5.500000000000000196e-05 3.890000000000000228e-04 -2.043000000000000111e-03 7.999999999999999638e-06 -6.620000000000000450e-04 -4.339999999999999782e-04 -1.210000000000000002e-04 -5.370000000000000424e-04 2.530000000000000239e-04 -1.340000000000000045e-04 4.739999999999999747e-04 -2.366000000000000048e-03 2.799999999999999755e-04 2.149999999999999947e-04 -2.017000000000000130e-03 3.680000000000000003e-04 -5.670000000000000127e-04 -3.690000000000000246e-04 -6.000000000000000152e-06 -9.039999999999999642e-04 2.739999999999999923e-04 -1.879999999999999890e-04 6.799999999999999946e-05 -2.174999999999999850e-03 -3.099999999999999999e-04 -6.600000000000000506e-05 -1.863999999999999988e-03 3.240000000000000150e-04 -7.029999999999999574e-04 4.440000000000000045e-04 7.600000000000000418e-05 -9.370000000000000074e-04 -1.730000000000000038e-04 1.119999999999999983e-04 3.759999999999999779e-04 -1.740999999999999926e-03 1.930000000000000021e-04 -2.750000000000000166e-04 -2.148000000000000170e-03 -4.829999999999999767e-04 -8.549999999999999658e-04 2.750000000000000166e-04 -3.499999999999999693e-05 -4.360000000000000269e-04 -1.710000000000000094e-04 -4.399999999999999886e-05 2.599999999999999772e-04 -1.590000000000000050e-03 -3.310000000000000225e-04 -2.469999999999999865e-04 -2.406000000000000152e-03 1.800000000000000046e-05 -7.640000000000000306e-04 4.600000000000000004e-05 -2.000000000000000096e-04 -6.449999999999999570e-04 -1.469999999999999953e-04 -1.219999999999999974e-04 4.060000000000000024e-04 -1.536000000000000039e-03 9.600000000000000243e-05 -1.499999999999999869e-04 -2.043999999999999810e-03 -1.200000000000000030e-05 -4.960000000000000216e-04 6.610000000000000207e-04 4.699999999999999724e-05 -8.310000000000000329e-04 2.579999999999999828e-04 5.199999999999999680e-05 6.530000000000000431e-04 -1.441999999999999922e-03 1.399999999999999877e-04 8.649999999999999920e-04 -1.701000000000000038e-03 5.029999999999999749e-04 -6.369999999999999794e-04 8.589999999999999546e-04 1.310000000000000129e-04 -1.396000000000000105e-03 9.259999999999999568e-04 -6.380000000000000037e-04 3.609999999999999928e-04 -7.619999999999999820e-04 -6.399999999999999710e-05 1.110000000000000011e-04 -1.188000000000000037e-03 -2.110000000000000059e-04 -4.189999999999999931e-04 9.359999999999999831e-04 9.299999999999999727e-05 -9.280000000000000054e-04 6.269999999999999532e-04 5.509999999999999490e-04 5.829999999999999679e-04 -8.480000000000000124e-04 -1.389999999999999905e-04 7.680000000000000195e-04 -1.425999999999999967e-03 2.239999999999999966e-04 -4.400000000000000157e-04 6.579999999999999478e-04 -3.800000000000000209e-05 -9.039999999999999642e-04 8.149999999999999693e-04 -1.240000000000000054e-04 1.062999999999999926e-03 -8.869999999999999846e-04 -4.859999999999999954e-04 6.380000000000000037e-04 -6.589999999999999721e-04 -2.779999999999999811e-04 -3.559999999999999797e-04 8.649999999999999920e-04 1.259999999999999998e-04 -7.230000000000000098e-04 6.470000000000000057e-04 9.299999999999999727e-05 9.349999999999999587e-04 -1.013999999999999927e-03 1.090000000000000067e-04 1.193000000000000050e-03 -9.979999999999999722e-04 3.530000000000000152e-04 -5.180000000000000143e-04 7.209999999999999612e-04 2.030000000000000012e-04 -7.969999999999999654e-04 6.589999999999999721e-04 -2.300000000000000002e-05 6.130000000000000466e-04 -8.970000000000000109e-04 2.629999999999999959e-04 6.880000000000000265e-04 -1.144999999999999967e-03 1.210000000000000002e-04 -1.105999999999999995e-03 6.160000000000000111e-04 2.860000000000000129e-04 -5.730000000000000501e-04 7.389999999999999651e-04 -4.100000000000000047e-05 8.610000000000000032e-04 -1.074000000000000085e-03 -1.559999999999999972e-04 3.480000000000000020e-04 -1.366999999999999943e-03 1.299999999999999920e-05 -1.033999999999999980e-03 5.529999999999999976e-04 -5.800000000000000034e-05 -3.530000000000000152e-04 7.950000000000000252e-04 6.499999999999999431e-05 1.209999999999999921e-03 -1.044000000000000006e-03 -2.280000000000000126e-04 5.500000000000000331e-04 -1.036000000000000029e-03 1.720000000000000066e-04 -1.080000000000000014e-03 9.330000000000000186e-04 1.069999999999999988e-04 -7.320000000000000118e-04 7.820000000000000345e-04 -1.010000000000000020e-04 1.219000000000000031e-03 -1.206000000000000041e-03 3.289999999999999739e-04 5.580000000000000107e-04 -1.175999999999999962e-03 1.779999999999999898e-04 1.070999999999999903e-03 5.400000000000000069e-04 2.489999999999999809e-04 4.498000000000000262e-03 -6.671999999999999979e-03 6.999999999999999895e-06 -4.787999999999999722e-03 7.159000000000000433e-03 4.300000000000000165e-05 -4.436999999999999972e-03 7.445000000000000229e-03 2.200000000000000078e-04 -1.310000000000000129e-04 5.419999999999999471e-04 -6.000000000000000152e-05 5.777000000000000017e-03 -6.542000000000000072e-03 -1.930000000000000021e-04 1.132999999999999893e-03 5.140000000000000254e-04 -1.379999999999999933e-04 4.903000000000000240e-03 -6.387999999999999581e-03 -4.699999999999999724e-05 -4.712000000000000043e-03 7.034000000000000322e-03 -3.280000000000000038e-04 -4.403999999999999929e-03 7.233999999999999979e-03 -1.730000000000000038e-04 9.999999999999999547e-07 5.119999999999999768e-04 2.449999999999999921e-04 5.942000000000000233e-03 -6.262000000000000205e-03 1.900000000000000105e-05 1.183999999999999940e-03 6.549999999999999833e-04 -1.060000000000000016e-04 4.767999999999999669e-03 -6.726000000000000208e-03 -8.299999999999999815e-05 -4.764000000000000005e-03 7.122999999999999991e-03 1.430000000000000064e-04 -4.357999999999999895e-03 7.367000000000000284e-03 -2.199999999999999943e-05 -8.799999999999999771e-05 3.959999999999999762e-04 -4.899999999999999842e-05 5.624999999999999792e-03 -6.366000000000000131e-03 -1.320000000000000101e-04 -3.930000000000000117e-04 2.059999999999999928e-04 -1.169999999999999979e-04 4.322999999999999586e-03 -6.779000000000000303e-03 -2.799999999999999958e-05 -5.749999999999999903e-03 7.553999999999999951e-03 -1.930000000000000021e-04 -5.935000000000000171e-03 7.413000000000000318e-03 6.999999999999999387e-05 3.499999999999999964e-04 1.999999999999999909e-06 2.369999999999999874e-04 3.996000000000000420e-03 -6.863000000000000177e-03 3.350000000000000113e-04 -4.600000000000000139e-04 3.649999999999999816e-04 2.290000000000000098e-04 4.320000000000000055e-03 -6.470000000000000057e-03 7.200000000000000182e-05 -5.982000000000000338e-03 7.348000000000000365e-03 2.599999999999999772e-04 -5.981000000000000205e-03 7.121999999999999859e-03 1.930000000000000021e-04 7.299999999999999903e-05 9.999999999999999547e-07 -1.949999999999999965e-04 4.350999999999999833e-03 -6.636999999999999671e-03 -2.700000000000000035e-04 -3.510000000000000208e-04 2.900000000000000017e-04 -1.579999999999999916e-04 4.537000000000000234e-03 -6.433000000000000350e-03 -2.739999999999999923e-04 -5.805000000000000264e-03 7.394000000000000399e-03 -1.520000000000000084e-04 -5.922000000000000181e-03 7.078000000000000090e-03 -2.090000000000000115e-04 3.370000000000000057e-04 7.399999999999999623e-05 -8.000000000000000654e-05 4.271999999999999756e-03 -6.824000000000000205e-03 -9.299999999999999727e-05 1.093999999999999920e-03 3.339999999999999870e-04 -2.049999999999999956e-04 5.486999999999999690e-03 -6.396999999999999909e-03 -1.589999999999999888e-04 -4.385000000000000009e-03 7.216000000000000192e-03 -2.820000000000000241e-04 -5.243000000000000264e-03 7.588000000000000127e-03 -1.800000000000000113e-04 1.108000000000000044e-03 3.930000000000000117e-04 1.900000000000000105e-05 5.413000000000000277e-03 -6.355000000000000406e-03 1.399999999999999979e-05 9.060000000000000128e-04 1.029999999999999964e-04 -4.199999999999999768e-05 5.479000000000000363e-03 -6.536000000000000143e-03 4.500000000000000283e-05 -4.874999999999999993e-03 7.022999999999999729e-03 3.240000000000000150e-04 -5.363999999999999845e-03 7.272999999999999951e-03 -6.899999999999999667e-05 1.123999999999999999e-03 4.429999999999999802e-04 6.700000000000000226e-05 5.335000000000000332e-03 -6.257999999999999674e-03 1.789999999999999870e-04 8.360000000000000460e-04 1.200000000000000030e-04 2.829999999999999942e-04 5.462999999999999974e-03 -6.133999999999999696e-03 -1.230000000000000082e-04 -4.730999999999999962e-03 7.144000000000000176e-03 -8.899999999999999491e-05 -5.485000000000000292e-03 6.976999999999999695e-03 2.039999999999999984e-04 1.008999999999999914e-03 5.389999999999999826e-04 -4.699999999999999724e-05 5.521999999999999999e-03 -6.156000000000000014e-03 2.100000000000000087e-04 4.659999999999999971e-04 7.609999999999999577e-04 -7.999999999999999638e-06 4.890000000000000249e-03 -8.238999999999999796e-03 2.200000000000000078e-04 -5.080999999999999579e-03 8.344000000000000722e-03 -2.610000000000000015e-04 -5.035000000000000413e-03 8.746000000000000302e-03 3.890000000000000228e-04 -1.830000000000000029e-04 4.859999999999999954e-04 1.910000000000000077e-04 5.259999999999999919e-03 -7.834999999999999951e-03 1.710000000000000094e-04 6.859999999999999779e-04 7.320000000000000118e-04 2.010000000000000068e-04 4.857000000000000206e-03 -7.644999999999999886e-03 -2.229999999999999994e-04 -5.074000000000000385e-03 8.314000000000000209e-03 1.219999999999999974e-04 -4.572999999999999808e-03 9.032999999999999363e-03 -2.190000000000000106e-04 3.899999999999999929e-05 3.800000000000000209e-04 1.569999999999999944e-04 5.262000000000000184e-03 -7.576000000000000269e-03 -2.649999999999999903e-04 5.439999999999999957e-04 5.900000000000000296e-04 -2.439999999999999949e-04 4.926999999999999956e-03 -7.760999999999999670e-03 -2.359999999999999902e-04 -5.265999999999999848e-03 8.332000000000000864e-03 -1.350000000000000017e-04 -4.846999999999999746e-03 8.847999999999999962e-03 -2.269999999999999882e-04 7.899999999999999579e-05 5.680000000000000370e-04 -2.999999999999999737e-04 4.983999999999999715e-03 -8.052000000000000129e-03 -1.090000000000000067e-04 8.500000000000000611e-05 1.015000000000000060e-03 -2.910000000000000260e-04 5.250000000000000326e-03 -6.782999999999999967e-03 2.099999999999999884e-05 -5.922000000000000181e-03 8.978999999999999135e-03 -7.200000000000000182e-05 -6.073000000000000273e-03 8.396999999999999950e-03 1.359999999999999989e-04 4.369999999999999970e-04 1.420000000000000038e-03 2.829999999999999942e-04 4.756999999999999944e-03 -7.244999999999999704e-03 2.880000000000000073e-04 -2.709999999999999735e-04 7.110000000000000434e-04 4.079999999999999968e-04 5.157000000000000126e-03 -6.455999999999999933e-03 2.039999999999999984e-04 -6.041999999999999628e-03 9.058999999999999345e-03 3.119999999999999944e-04 -6.006000000000000054e-03 8.293000000000000024e-03 2.880000000000000073e-04 3.770000000000000022e-04 1.378000000000000102e-03 1.699999999999999987e-05 5.082999999999999845e-03 -7.211999999999999661e-03 -2.420000000000000005e-04 4.800000000000000122e-05 7.460000000000000268e-04 -6.399999999999999710e-05 5.362999999999999712e-03 -6.522000000000000020e-03 -4.369999999999999970e-04 -5.818000000000000255e-03 9.041000000000000425e-03 -3.009999999999999980e-04 -5.734000000000000381e-03 8.729999999999999913e-03 -4.479999999999999933e-04 6.220000000000000485e-04 1.577000000000000060e-03 -3.840000000000000097e-04 5.066000000000000190e-03 -7.485000000000000334e-03 -2.970000000000000092e-04 8.620000000000000275e-04 1.265999999999999981e-03 -2.480000000000000108e-04 4.725000000000000033e-03 -7.378000000000000010e-03 -2.709999999999999735e-04 -4.270999999999999623e-03 9.216999999999999499e-03 -4.510000000000000120e-04 -4.729999999999999830e-03 9.518999999999999684e-03 -6.999999999999999895e-06 4.889999999999999599e-04 8.099999999999999561e-04 -7.499999999999999343e-05 5.139000000000000339e-03 -6.467999999999999791e-03 1.740000000000000010e-04 8.739999999999999939e-04 1.381000000000000066e-03 3.739999999999999835e-04 5.017999999999999891e-03 -7.117000000000000062e-03 1.430000000000000064e-04 -4.566999999999999879e-03 9.336999999999999814e-03 1.450000000000000009e-04 -4.912999999999999833e-03 9.369999999999999857e-03 1.810000000000000085e-04 3.890000000000000228e-04 9.039999999999999642e-04 5.680000000000000370e-04 5.333000000000000067e-03 -6.433000000000000350e-03 2.200000000000000078e-04 8.790000000000000070e-04 1.456999999999999962e-03 -2.300000000000000002e-05 4.899999999999999842e-03 -7.132999999999999584e-03 -9.999999999999999547e-07 -4.667000000000000141e-03 9.128000000000000697e-03 -1.000000000000000082e-05 -5.022999999999999687e-03 9.419999999999999554e-03 -1.679999999999999907e-04 2.570000000000000127e-04 6.930000000000000396e-04 -4.420000000000000101e-04 5.355000000000000385e-03 -6.446999999999999606e-03 2.030000000000000012e-04 2.120000000000000031e-04 1.008999999999999914e-03 3.000000000000000076e-06 4.392000000000000071e-03 -5.146999999999999666e-03 1.720000000000000066e-04 -5.134999999999999808e-03 8.278000000000000635e-03 1.399999999999999979e-05 -5.230000000000000274e-03 7.832999999999999685e-03 3.119999999999999944e-04 -5.339999999999999695e-04 1.116999999999999937e-03 -1.219999999999999974e-04 5.661000000000000233e-03 -5.290999999999999696e-03 6.600000000000000506e-05 3.660000000000000059e-04 7.979999999999999897e-04 -1.090000000000000067e-04 4.637999999999999762e-03 -5.261000000000000051e-03 -2.120000000000000031e-04 -4.818000000000000234e-03 7.997999999999999901e-03 -1.699999999999999987e-05 -4.969000000000000326e-03 7.643999999999999753e-03 -5.599999999999999916e-05 -5.479999999999999845e-04 9.920000000000000432e-04 -2.300000000000000002e-05 5.565999999999999767e-03 -5.671999999999999958e-03 -2.120000000000000031e-04 1.939999999999999993e-04 7.519999999999999558e-04 1.099999999999999971e-05 4.765000000000000138e-03 -5.135999999999999940e-03 -3.640000000000000115e-04 -4.977999999999999786e-03 8.449999999999999178e-03 -3.390000000000000001e-04 -5.334000000000000200e-03 7.498000000000000324e-03 -2.090000000000000115e-04 -4.310000000000000137e-04 1.191000000000000001e-03 7.700000000000000139e-05 5.523000000000000131e-03 -5.369999999999999774e-03 -3.899999999999999929e-05 -3.690000000000000246e-04 8.059999999999999673e-04 -1.740000000000000010e-04 4.563000000000000216e-03 -6.962999999999999572e-03 1.310000000000000129e-04 -4.897000000000000311e-03 7.971000000000000654e-03 -1.630000000000000047e-04 -5.067000000000000323e-03 8.486999999999999753e-03 3.499999999999999693e-05 -6.899999999999999667e-05 3.919999999999999873e-04 3.179999999999999776e-04 4.185000000000000352e-03 -6.065000000000000079e-03 3.950000000000000061e-04 -5.900000000000000296e-04 6.989999999999999686e-04 4.350000000000000026e-04 4.564000000000000348e-03 -6.910999999999999609e-03 1.410000000000000120e-04 -4.963999999999999663e-03 7.707999999999999574e-03 4.899999999999999842e-05 -5.379000000000000101e-03 7.943999999999999673e-03 3.319999999999999926e-04 -1.420000000000000092e-04 3.449999999999999833e-04 -1.099999999999999971e-05 4.406000000000000194e-03 -5.786999999999999610e-03 -2.079999999999999872e-04 -2.990000000000000036e-04 7.709999999999999840e-04 -1.079999999999999960e-04 4.805000000000000243e-03 -6.636000000000000405e-03 -4.870000000000000197e-04 -4.874999999999999993e-03 7.804000000000000173e-03 -1.949999999999999965e-04 -5.245999999999999795e-03 8.123999999999999277e-03 -3.600000000000000227e-04 -7.899999999999999579e-05 2.680000000000000090e-04 -2.469999999999999865e-04 4.406000000000000194e-03 -6.039000000000000097e-03 -3.130000000000000187e-04 2.300000000000000070e-04 2.469999999999999865e-04 -9.299999999999999727e-05 5.237999999999999601e-03 -5.802999999999999999e-03 -1.060000000000000016e-04 -5.179999999999999709e-03 7.348999999999999630e-03 -3.759999999999999779e-04 -5.100000000000000366e-03 7.402999999999999858e-03 2.010000000000000068e-04 7.100000000000000462e-05 4.960000000000000216e-04 1.749999999999999982e-04 4.917999999999999629e-03 -6.870000000000000238e-03 3.249999999999999851e-04 2.259999999999999910e-04 2.730000000000000222e-04 1.740000000000000010e-04 5.163000000000000055e-03 -6.119000000000000307e-03 1.369999999999999961e-04 -5.257000000000000388e-03 7.300000000000000065e-03 3.040000000000000167e-04 -5.277999999999999706e-03 7.313000000000000056e-03 1.900000000000000105e-05 -9.000000000000000228e-06 3.739999999999999835e-04 2.930000000000000204e-04 4.670999999999999805e-03 -6.553999999999999930e-03 -7.999999999999999638e-06 1.450000000000000009e-04 2.770000000000000110e-04 -3.999999999999999819e-06 4.996999999999999706e-03 -6.128999999999999899e-03 -2.959999999999999849e-04 -5.381000000000000366e-03 7.160999999999999831e-03 -2.680000000000000090e-04 -5.369999999999999774e-03 7.207999999999999997e-03 -8.200000000000000095e-05 -1.469999999999999953e-04 5.069999999999999637e-04 -4.090000000000000211e-04 4.845999999999999613e-03 -6.573999999999999982e-03