-4.702363346800000272e+02
-4.702363362799999891e+02
-4.702363394500000027e+02
-4.702363442800000257e+02
-4.702363508899999829e+02
-4.702363593399999786e+02
