9.286940050702593652e+00 7.534738674812092209e-24 3.047670451589892588e-20 -4.643466721427136790e+00 8.042726786308211473e+00 -6.471054247859087866e-20 1.838253564717857403e-05 -5.712359057055865807e-06 2.191880659220522887e+01
9.286940050702593652e+00 7.534738674812092209e-24 3.047670451589892588e-20 -4.643466721427136790e+00 8.042726786308211473e+00 -6.471054247859087866e-20 1.838253564717857403e-05 -5.712359057055865807e-06 2.191880659220522887e+01
9.286940050702593652e+00 7.534738674812092209e-24 3.047670451589892588e-20 -4.643466721427136790e+00 8.042726786308211473e+00 -6.471054247859087866e-20 1.838253564717857403e-05 -5.712359057055865807e-06 2.191880659220522887e+01
9.286940050702593652e+00 7.534738674812092209e-24 3.047670451589892588e-20 -4.643466721427136790e+00 8.042726786308211473e+00 -6.471054247859087866e-20 1.838253564717857403e-05 -5.712359057055865807e-06 2.191880659220522887e+01
9.286940050702593652e+00 7.534738674812092209e-24 3.047670451589892588e-20 -4.643466721427136790e+00 8.042726786308211473e+00 -6.471054247859087866e-20 1.838253564717857403e-05 -5.712359057055865807e-06 2.191880659220522887e+01
