3.778998044549030256e-03 2.441600026610682428e-02 -1.972200004524810035e-02 3.597999996754479464e-03 1.140002730905727583e-04 9.739999800256881213e-04 3.801000214580001462e-03 -2.685999710459709838e-03 2.071999981702011499e-03 -1.970000034801446843e-04 1.189999860997158025e-04 1.000000000968545143e-03 2.140800080789717966e-02 -1.201299839912092944e-02 -1.823400010616956293e-02 1.180800179831934318e-02 -2.681999914859402312e-02 -4.168300003838858181e-02 3.207399887769112751e-02 1.663900245039414555e-02 2.465699980633584767e-02 2.215999917014240331e-03 1.102000167661574626e-03 6.499998666723836888e-05 5.240000103828465440e-04 -2.009999612417639385e-04 -8.730000026916300915e-04 1.308000121916301191e-03 -1.584999900706034193e-03 3.699999943632482414e-04 2.350000126605703390e-04 -2.289999830699409027e-04 -8.440000010684233682e-04 1.327999903379211344e-03 1.356000101510770927e-03 1.074999991315155490e-03 -4.640000388357240274e-04 4.299999637648440546e-04 -1.143999997868303973e-03 2.670000100997692587e-04 -1.449999799635444603e-04 -1.570000013289643310e-04 -4.250000413879569485e-04 5.459999678401580890e-04 -1.699999819944797604e-05 3.090000143213875302e-04 -2.829999779118086379e-04 -1.283000001422953404e-03 5.683000580928185448e-03 2.832000573690967010e-03 1.440459999658018631e-01 -1.123249998220177820e-01 -9.650084761680504655e-04 1.902200062098168346e-02 6.159000266153487682e-03 -2.195999516084597928e-03 1.812899996819674134e-02 2.717000134604055130e-03 -2.899997741235140294e-04 2.041199998529222639e-02 2.538000390794880289e-03 -3.704999788038895476e-03 2.003399998969144363e-02 4.350006727065894915e-04 -7.321999945577017770e-03 2.154800000491263745e-02 2.141999729985638676e-03 4.975000181226380512e-03 1.924799998320705918e-02 7.590000204556757992e-04 1.249000078198979954e-03 2.081899999456283262e-02 -1.885999865236761977e-03 -2.470001216322840923e-04 2.103000001065716967e-02 -5.419999018494722027e-04 2.289999799039054622e-04 2.091900000276301907e-02 -9.279998627740851293e-04 -2.800000491844904403e-04 2.102400000540211381e-02 -5.539999030700193785e-04 1.749999780364218252e-04 1.995800000288319720e-02 9.599999647821663836e-04 2.083000094740153438e-03 2.215999999262027731e-02 2.533000079663287347e-03 3.120002102574317396e-04 1.870699998570655651e-02 3.920002261183215910e-04 -1.498999949949875047e-03 2.042599999933353283e-02 2.030999811715336785e-03 3.975000173935183331e-03 2.035299998481863992e-02 -4.264001395676726529e-03 1.427899962037378415e-02 -5.720299999072629010e-02 7.971000514173603654e-03 -7.326999404384063400e-03 -7.241000036680000224e-03 -9.650001093291369269e-04 1.499990743781533267e-05 -1.960099999468832219e-02 1.120199922100221721e-02 7.020000802318600644e-03 -4.494200006884553622e-02 -2.069999293110833232e-03 -1.245200019905481036e-02 -4.254799997613589041e-02 -1.968000197627707299e-03 1.178999831532717485e-03 -1.964899999031459801e-02 -1.983999974633210255e-03 -1.978000172531149247e-03 -2.250599998707283195e-02 4.839998049740327287e-04 1.150000017052026221e-03 -1.957500000382031771e-02 -5.969999413822645344e-04 -2.233000065104822317e-03 -1.997599999447415703e-02 -1.400015171750984723e-05 5.199999786030423980e-04 -2.036100000044214001e-02 3.289999470107876178e-04 -7.729999952859663986e-04 -2.019100000104390169e-02 -9.690002629810677212e-04 1.973999906141406420e-03 -2.059599999662304129e-02 1.456999857400957579e-03 4.260000902187429045e-04 -1.999700000846795292e-02 -3.600018403057855777e-05 9.689999772368408301e-04 -2.006300000076919818e-02 -2.640001418206555542e-04 4.159999600630650304e-04 -1.999299999895829197e-02 -3.099986076560183400e-05 -3.272000021929508291e-03 -1.960699999656055972e-02
3.773998046517064702e-03 2.439100026574265306e-02 -1.970800004519553117e-02 3.594999996673329135e-03 1.150002728626831083e-04 9.729999800412487835e-04 3.795000214190810683e-03 -2.680999710915489120e-03 2.069999981730135871e-03 -1.970000034155541260e-04 1.179999860977180273e-04 9.980000009695440787e-04 2.138400080705585293e-02 -1.200099840092406882e-02 -1.822200010604907092e-02 1.180100179657210362e-02 -2.679499914909746691e-02 -4.165700003837492088e-02 3.204599887888852361e-02 1.662200244826051582e-02 2.464099980650738542e-02 2.213999917252170834e-03 1.099000167512311898e-03 6.699998668127471566e-05 5.220000104750363145e-04 -2.019999613900278239e-04 -8.700000026795914713e-04 1.307000121683890613e-03 -1.581999900782663252e-03 3.689999943657714808e-04 2.330000126660902076e-04 -2.289999832202025418e-04 -8.430000010573835637e-04 1.325999903379211295e-03 1.356000101359510412e-03 1.074999991326195054e-03 -4.620000385867538092e-04 4.269999639201001065e-04 -1.139999997876346921e-03 2.670000101753995160e-04 -1.459999799635444575e-04 -1.570000013279654555e-04 -4.240000413123267212e-04 5.449999679157883220e-04 -1.699999820396895679e-05 3.070000141811667473e-04 -2.809999780610714071e-04 -1.281000001413911326e-03 5.675000580354121020e-03 2.832000572982041903e-03 1.439419999658460014e-01 -1.122409998220784966e-01 -9.650084698260964853e-04 1.901100062051801556e-02 6.155000266092768360e-03 -2.195999516398106696e-03 1.811799996821882031e-02 2.715000134369996865e-03 -2.879997742897576814e-04 2.039699998530126665e-02 2.534000390566341649e-03 -3.702999788355401146e-03 2.001999998971152467e-02 4.350006722511602316e-04 -7.316999945591001579e-03 2.153400000490764479e-02 2.140999730437772967e-03 4.968000181136765503e-03 1.923399998321957335e-02 7.620000205130986887e-04 1.247000078408889902e-03 2.080199999454827170e-02 -1.882999865411749425e-03 -2.460001214233731629e-04 2.101200001063961015e-02 -5.439999019377899508e-04 2.289999797366629132e-04 2.090300000277406020e-02 -9.279998628679226105e-04 -2.800000492014713773e-04 2.100700000540211415e-02 -5.499999033095976037e-04 1.769999783229608142e-04 1.994200000285912058e-02 9.619999648340693587e-04 2.081000094873434146e-03 2.214199999261123528e-02 2.529000079510379181e-03 3.130002099409264784e-04 1.869299998572763674e-02 3.920002258031131197e-04 -1.495999949965857089e-03 2.040999999933053657e-02 2.029999811794839463e-03 3.973000173846567319e-03 2.033999998482615909e-02 -4.257001394736620835e-03 1.426999962095014396e-02 -5.715599999075594156e-02 7.964000513526050401e-03 -7.317999404907481187e-03 -7.235000036650351268e-03 -9.620001093920796690e-04 1.699990768068812997e-05 -1.958499999470688160e-02 1.119599922146481165e-02 7.016000801893785416e-03 -4.491300006880841883e-02 -2.061999293376940053e-03 -1.244600019841580855e-02 -4.251399997618604543e-02 -1.970000197069048543e-03 1.172999831400435566e-03 -1.962999999029756831e-02 -1.973999974814294543e-03 -1.974000171752871100e-03 -2.248399998713202300e-02 4.889998053372721825e-04 1.146000017441165366e-03 -1.956400000384392324e-02 -5.969999412183165776e-04 -2.234000065088840008e-03 -1.995999999447315570e-02 -1.400015147793164675e-05 5.179999786190244652e-04 -2.034500000044013948e-02 3.289999469644043647e-04 -7.709999952669877163e-04 -2.017200000104589844e-02 -9.660002627414894343e-04 1.971999906384278717e-03 -2.057999999663760390e-02 1.454999857505834791e-03 4.260000900864610238e-04 -1.997800000845691148e-02 -3.700018385007103631e-05 9.679999771801891823e-04 -2.004400000076267743e-02 -2.630001417268179945e-04 4.159999601556761705e-04 -1.997599999896381220e-02 -3.199986126024677172e-05 -3.264000021985160194e-03 -1.958699999656303078e-02
3.771998047527857448e-03 2.437800026559638900e-02 -1.970300004517150372e-02 3.594999996662289355e-03 1.150002728606853574e-04 9.709999800412487348e-04 3.796000214098620672e-03 -2.679999710842855681e-03 2.066999981723617250e-03 -1.970000036424448978e-04 1.209999860977180325e-04 9.980000009665473439e-04 2.137100080655956330e-02 -1.199399840190127145e-02 -1.821600010598430769e-02 1.178900179535814774e-02 -2.677799914999204334e-02 -4.164400003832566255e-02 3.201999887981651916e-02 1.660900244628413583e-02 2.463099980666388911e-02 2.214999917165500713e-03 1.100000167585944537e-03 6.499998667475598280e-05 5.230000105396269243e-04 -2.029999613163953147e-04 -8.720000026841125346e-04 1.305000121765040712e-03 -1.582999900932924916e-03 3.699999943778100524e-04 2.340000126605703418e-04 -2.289999831455711600e-04 -8.440000010629034781e-04 1.328999903454841734e-03 1.355000101586401268e-03 1.074999991310634367e-03 -4.630000386844634885e-04 4.279999638404743175e-04 -1.143999997871826112e-03 2.660000102455099672e-04 -1.469999800401735875e-04 -1.580000013214467142e-04 -4.250000413989966745e-04 5.459999678381603381e-04 -1.899999819944797722e-05 3.090000141701270157e-04 -2.809999779118086435e-04 -1.283000001424951155e-03 5.682000580444663239e-03 2.830000573500465917e-03 1.439309999658093531e-01 -1.122309998220304833e-01 -9.660084690747882058e-04 1.900600062046381433e-02 6.159000265989538966e-03 -2.194999516100579803e-03 1.811299996819574348e-02 2.713000134336878127e-03 -2.879997744470114487e-04 2.039099998531230737e-02 2.533000390370922748e-03 -3.700999788439022359e-03 2.001199998971504510e-02 4.370006719525113166e-04 -7.313999945452727240e-03 2.152100000489360482e-02 2.143999730410173915e-03 4.968000181358661789e-03 1.922899998320301215e-02 7.630000203988294418e-04 1.248000078477528056e-03 2.079499999454175255e-02 -1.882999865363718401e-03 -2.470001214283675103e-04 2.100700001064061129e-02 -5.439999020465393319e-04 2.299999797306696305e-04 2.089700000277305847e-02 -9.279998628955219526e-04 -2.800000492064657546e-04 2.100200000540211262e-02 -5.489999032505268840e-04 1.759999783955944479e-04 1.993900000285459689e-02 9.659999647198001848e-04 2.082000095168963071e-03 2.213499999258815645e-02 2.531000079552890147e-03 3.120002100861937158e-04 1.868699998571759363e-02 3.910002257755139160e-04 -1.495999950046481832e-03 2.040499999933605493e-02 2.028999811809751447e-03 3.972000173759948974e-03 2.032899998483267412e-02 -4.258001394666509516e-03 1.426899962087351675e-02 -5.715699999074942000e-02 7.965000513229047660e-03 -7.313999404830851848e-03 -7.234000036659866094e-03 -9.590001094621900717e-04 1.799990790857777781e-05 -1.958399999472443948e-02 1.119599922143334203e-02 7.017000801901776552e-03 -4.490500006880941697e-02 -2.052999292816056788e-03 -1.245400019774312549e-02 -4.252199997622772842e-02 -1.971000196864236814e-03 1.169999831320809843e-03 -1.963399999028904788e-02 -1.960999975282988212e-03 -1.967000170758689739e-03 -2.247299998721077191e-02 4.969998056232337357e-04 1.142000018043210592e-03 -1.956700000388408509e-02 -5.959999412238363350e-04 -2.234000065014208735e-03 -1.996099999447867659e-02 -1.400015138022196630e-05 5.169999786230199427e-04 -2.034100000043914322e-02 3.299999468942940218e-04 -7.699999951903585592e-04 -2.017100000105242000e-02 -9.650002627414895184e-04 1.971999906459909191e-03 -2.057999999664312379e-02 1.454999857500314901e-03 4.260000900854621483e-04 -1.997900000845691248e-02 -3.700018367673110368e-05 9.659999771841846355e-04 -2.004000000076067850e-02 -2.620001417157782984e-04 4.159999602333041787e-04 -1.997399999896933009e-02 -3.199986192048739203e-05 -3.256000021995149405e-03 -1.959699999657102398e-02
3.766998050960466016e-03 2.433400026523721907e-02 -1.968400004509995513e-02 3.590999996656769368e-03 1.150002725571654528e-04 9.699999800633282709e-04 3.789000213644839066e-03 -2.673999711372267336e-03 2.066999981756263011e-03 -1.960000033454437345e-04 1.169999861723494255e-04 9.970000009650232566e-04 2.133500080497849338e-02 -1.197199840460897585e-02 -1.820100010580756600e-02 1.177500179189513822e-02 -2.672899915100691512e-02 -4.160000003829732867e-02 3.196499888214671820e-02 1.657600244209450971e-02 2.460099980700044403e-02 2.215999917473541764e-03 1.096000167662573464e-03 6.599998667323164596e-05 5.210000106318166948e-04 -2.039999614646592001e-04 -8.690000026720739144e-04 1.304000121597220611e-03 -1.580999901011551642e-03 3.669999943813321186e-04 2.340000126605703418e-04 -2.289999831455711600e-04 -8.440000010629034781e-04 1.324999903379211379e-03 1.356000101283880155e-03 1.074999991331714944e-03 -4.610000385922736750e-04 4.269999639947314883e-04 -1.140999997881866944e-03 2.670000102455099373e-04 -1.469999799645433302e-04 -1.580000013269665501e-04 -4.220000411555464306e-04 5.429999680680476634e-04 -1.599999821301091433e-05 3.050000140944967696e-04 -2.799999782143296483e-04 -1.283000001403870579e-03 5.682000580144942921e-03 2.829000573432542253e-03 1.438629999658103398e-01 -1.121589998223495588e-01 -9.620084636324063203e-04 1.900300062006238938e-02 6.161000265924946803e-03 -2.193999515947321621e-03 1.811499996818370303e-02 2.712000134384909018e-03 -2.889997745276360534e-04 2.038599998531882840e-02 2.534000390116432008e-03 -3.697999788368386189e-03 2.000699998970653301e-02 4.400006716814617138e-04 -7.310999945233826423e-03 2.151300000487404995e-02 2.147999730485804053e-03 4.967000181661182685e-03 1.922899998318193179e-02 7.640000204358208180e-04 1.247000078546166161e-03 2.078799999453723180e-02 -1.880999865304647982e-03 -2.480001212801036465e-04 2.100400001063056771e-02 -5.449999019228780753e-04 2.279999796500450015e-04 2.089200000278057870e-02 -9.249998629932315889e-04 -2.790000489835705146e-04 2.099800000538455322e-02 -5.499999032891658137e-04 1.759999783129720353e-04 1.993200000286011672e-02 9.699999649726426254e-04 2.078000095462494232e-03 2.212599999257007510e-02 2.533000079460700268e-03 3.130002102344576283e-04 1.868399998570555859e-02 3.930002255966541080e-04 -1.493999949900215755e-03 2.039999999932301869e-02 2.027999811944452592e-03 3.970000173681322367e-03 2.032599998484019288e-02 -4.252001394225992173e-03 1.426499962135226868e-02 -5.713199999077855223e-02 7.968000513088827758e-03 -7.311999404601963494e-03 -7.232000036678423033e-03 -9.560001093479209445e-04 1.699990814246069419e-05 -1.957699999473999988e-02 1.119599922170603883e-02 7.015000801923753498e-03 -4.488300006880741738e-02 -2.031999292318116372e-03 -1.246000019614690139e-02 -4.251399997633765332e-02 -1.977000196189084534e-03 1.160999830866029422e-03 -1.963499999024694020e-02 -1.940999976004523838e-03 -1.956000169226106925e-03 -2.245299998733215827e-02 5.119998060604554315e-04 1.136000019174668004e-03 -1.957000000396089123e-02 -5.949999410228972189e-04 -2.236000064929588756e-03 -1.995199999448219949e-02 -1.300015110917235432e-05 5.139999787066412392e-04 -2.033300000044166445e-02 3.299999466248921165e-04 -7.659999951843652092e-04 -2.016500000105641080e-02 -9.620002627674410171e-04 1.972999906695789649e-03 -2.057099999666068060e-02 1.452999857614584341e-03 4.250000899411937377e-04 -1.997200000844487344e-02 -3.600018362153255784e-05 9.659999772698036474e-04 -2.003000000076619880e-02 -2.600001416771392901e-04 4.159999603915568215e-04 -1.996699999898036981e-02 -3.199986299035071296e-05 -3.242000021997146816e-03 -1.959899999658500439e-02
3.764998056350069011e-03 2.426500026511691985e-02 -1.965300004501999501e-02 3.587999996667809183e-03 1.150002723322724320e-04 9.719999800798877730e-04 3.777000212822298388e-03 -2.663999712291816903e-03 2.054999981812512862e-03 -1.890000035778544160e-04 1.199999867007623425e-04 9.960000009233873752e-04 2.127600080317218478e-02 -1.194599840904219529e-02 -1.817200010550786698e-02 1.174400178662581701e-02 -2.665399915327854030e-02 -4.152700003820113117e-02 3.188199888583109765e-02 1.652400243577224759e-02 2.455599980751053263e-02 2.206999917587811142e-03 1.095000166988893469e-03 7.299998672390921458e-05 5.150000101504359886e-04 -1.979999619234351377e-04 -8.740000026449480566e-04 1.304000121289179692e-03 -1.576999901012550746e-03 3.659999943773366467e-04 2.370000123635691673e-04 -2.249999829176815239e-04 -8.430000010834585175e-04 1.318999903606102222e-03 1.353000100830098647e-03 1.074999991367830803e-03 -4.620000386347848328e-04 4.279999639250944539e-04 -1.134999997877345892e-03 2.620000104724007502e-04 -1.499999803426945810e-04 -1.580000012963706630e-04 -4.200000401353617941e-04 5.289999682123160346e-04 -2.299999821006635411e-05 3.070000141756468572e-04 -2.809999780620702826e-04 -1.282000001413911242e-03 5.689000579587436685e-03 2.829000573861067524e-03 1.437619999657717140e-01 -1.120699998223236155e-01 -9.630084569103033272e-04 1.899400061957212324e-02 6.156000265939860425e-03 -2.194999516336460128e-03 1.810399996821230109e-02 2.712000134728293627e-03 -2.949997745476136543e-04 2.036599998532481748e-02 2.538000389568813298e-03 -3.691999788082846005e-03 1.998999998967845859e-02 4.450006709881019150e-04 -7.302999944871657600e-03 2.149700000483845824e-02 2.151999730273824844e-03 4.969000181952716241e-03 1.921799998315785324e-02 7.610000193107588958e-04 1.261000078307288790e-03 2.077599999453980453e-02 -1.878999865581217283e-03 -2.450001211378329924e-04 2.099500001061653173e-02 -5.419999022270468019e-04 2.309999798629514814e-04 2.087800000276102130e-02 -9.229998628806100397e-04 -2.810000488393020685e-04 2.099100000537551178e-02 -5.539999032521745592e-04 1.749999780034588808e-04 1.992500000288319542e-02 9.779999652679957547e-04 2.073000096052553254e-03 2.211099999253090739e-02 2.539000079481132204e-03 3.120002106782503387e-04 1.867399998567343539e-02 3.930002256651167589e-04 -1.495999949915198827e-03 2.038499999932501597e-02 2.024999812536806918e-03 3.961000173438449477e-03 2.030999998486574323e-02 -4.245001393579015715e-03 1.425899962191664282e-02 -5.709699999081119248e-02 7.964000512710676591e-03 -7.306999404904484727e-03 -7.232000036661338609e-03 -9.510001095731640411e-04 2.099990853459624611e-05 -1.956299999477159601e-02 1.119699922223322749e-02 7.010000802026352187e-03 -4.485600006880794549e-02 -1.996999291430985850e-03 -1.247100019348985206e-02 -4.250399997651985867e-02 -1.994000195253922518e-03 1.148999829585309459e-03 -1.962999999014112054e-02 -1.919999977368093066e-03 -1.936000167610902375e-03 -2.242599998746805379e-02 5.309998066986167499e-04 1.128000020617636167e-03 -1.956400000405777648e-02 -5.929999412001092565e-04 -2.233000064769338506e-03 -1.994299999449623481e-02 -9.000150779052058745e-06 5.099999790141566567e-04 -2.032800000045974567e-02 3.289999465658213968e-04 -7.649999952569988158e-04 -2.016200000105189058e-02 -9.620002627933925887e-04 1.973999906704779986e-03 -2.056199999666168121e-02 1.448999857583112673e-03 4.260000896466637366e-04 -1.996400000842379202e-02 -4.300018280451155397e-05 9.559999767513795588e-04 -2.001900000071757044e-02 -2.530001410279384831e-04 4.079999609289597568e-04 -1.995899999901101785e-02 -2.999986430918422938e-05 -3.225000021851880116e-03 -1.960499999661302964e-02
3.745998064219982580e-03 2.416700026376285629e-02 -1.957000004481722691e-02 3.534000001003037746e-03 5.600026822526451491e-05 9.489999804368936306e-04 3.770000213834738458e-03 -2.675999712802250470e-03 2.073999981863138085e-03 -2.230000021116323745e-04 1.019999841483122931e-04 1.015000001129042449e-03 2.120600079788852524e-02 -1.187299841429336096e-02 -1.812900010519439414e-02 1.171800177914056329e-02 -2.654699915513504885e-02 -4.141700003816449482e-02 3.175599888923890529e-02 1.647500242618889568e-02 2.450199980825498031e-02 2.167999917680000881e-03 1.094000164042310038e-03 7.599998694018245387e-05 4.660000103221282404e-04 -2.009999656393065442e-04 -8.840000023714784678e-04 1.366000120544493468e-03 -1.569999896362430768e-03 3.269999940281134742e-04 2.230000127268086472e-04 -2.289999839655174844e-04 -8.320000010021850459e-04 1.312999901817504377e-03 1.373000100326373166e-03 1.024999991380972503e-03 -4.370000379822885895e-04 4.219999658518105274e-04 -1.098999998009349017e-03 2.770000088234468669e-04 -1.289999792192284380e-04 -1.690000014001448805e-04 -4.140000408828490609e-04 5.409999686950650415e-04 6.000001744827995584e-06 3.440000127546547675e-04 -2.589999752198002508e-04 -1.238000001640121150e-03 5.668000578836737517e-03 2.829000572136984842e-03 1.436259999658876518e-01 -1.119529998219746941e-01 -9.690084480805417899e-04 1.897500061893228965e-02 6.193000264895946912e-03 -2.181999513549128574e-03 1.809299996799508536e-02 2.702000135274264421e-03 -3.019997753009195538e-04 2.036899998538701378e-02 2.527000389912197748e-03 -3.697999788934756924e-03 1.996999998974517340e-02 4.540006701335129479e-04 -7.288999944154027529e-03 2.153400000477479620e-02 2.138999731116797247e-03 4.958000180971520489e-03 1.921999998324060155e-02 7.720000202459211588e-04 1.249000079144216031e-03 2.078099999449107421e-02 -1.905999866413150010e-03 -2.340001231798499693e-04 2.099500001075458103e-02 -5.069999011091526299e-04 2.159999825070139012e-04 2.087500000258281016e-02 -9.469998643357923013e-04 -2.630000506714092845e-04 2.097400000549000734e-02 -5.189999024975198820e-04 1.639999806365336323e-04 1.991100000270099035e-02 1.005999967073729949e-03 2.050000098182186946e-03 2.212299999239933021e-02 2.516000080285465349e-03 3.010002089337600480e-04 1.866899998581138254e-02 4.100002269894700716e-04 -1.512999948622492305e-03 2.039199999924816084e-02 2.011999810950796091e-03 3.980000172428286957e-03 2.028299998491852121e-02 -4.241001391028595240e-03 1.422899962227010609e-02 -5.704599999080330747e-02 7.973000513962692770e-03 -7.320999404188851568e-03 -7.197000036697033705e-03 -9.570001104255284816e-04 3.299990809080343373e-05 -1.955299999475046055e-02 1.118099922354209158e-02 6.997000800875201841e-03 -4.479700006870664108e-02 -1.953999291259870055e-03 -1.247100019020678380e-02 -4.247299997675721417e-02 -2.009000195007176141e-03 1.147999828481820715e-03 -1.959899999005731974e-02 -1.836999977125219896e-03 -1.936000161289640285e-03 -2.238199998792619883e-02 5.349998093092610783e-04 1.091000020886195290e-03 -1.959800000404289880e-02 -5.849999398211341113e-04 -2.247000064106361144e-03 -1.988499999452640957e-02 -1.200015132115128329e-05 5.159999787712838066e-04 -2.034400000044918333e-02 3.169999454307909385e-04 -7.469999961236082221e-04 -2.012100000100363467e-02 -9.400002628728950814e-04 1.975999908381630751e-03 -2.054899999678511807e-02 1.414999857595800265e-03 4.270000870912170755e-04 -1.994800000823711630e-02 -7.000183946709792765e-06 9.729999795000396703e-04 -1.999300000093326771e-02 -2.620001451291085722e-04 4.649999602862445766e-04 -1.992099999901827609e-02 8.000132381291605814e-06 -3.180000018960949665e-03 -1.958799999686773249e-02
