1.000009943566882060e-02 1.875025074314208262e-08 1.801417999994480112e+01 3.034500099435660125e+00 2.474939649777346120e-07 1.801417998324999914e+01 6.069000099435650775e+00 4.769939817887350842e-07 1.801417996649999509e+01 9.103500099435642312e+00 7.064939985997356093e-07 1.801417994974999459e+01 1.062074990068310143e+01 2.627950821243999258e+00 1.801417993874999723e+01 1.517249900683128816e+00 2.627950132743948508e+00 1.801417998900000228e+01 4.551749900683120131e+00 2.627950362243965721e+00 1.801417997225000178e+01 7.586249900683110781e+00 2.627950591743982489e+00 1.801417995549999773e+01 9.103499701929814947e+00 5.255910706493984286e+00 1.801417994449998972e+01 -2.980701586161172726e-07 5.255910017993933536e+00 1.801417999474999476e+01 3.034499701929832760e+00 5.255910247493949861e+00 1.801417997799999426e+01 6.068999701929823409e+00 5.255910476993967073e+00 1.801417996124999021e+01 7.586249503177283415e+00 7.883860591743967916e+00 1.801417995024999286e+01 -1.517250496822689865e+00 7.883859903243918055e+00 1.801418000049999790e+01 1.517249503177301229e+00 7.883860132743934379e+00 1.801417998374999740e+01 4.551749503177292766e+00 7.883860362243951592e+00 1.801417996699999691e+01 -3.942906616344270633e-08 1.751970016842527622e+00 1.686146999824999781e+01 3.034499960626123816e+00 1.751970246352533289e+00 1.687146998149999533e+01 6.068999960570915952e+00 1.751970475842561381e+00 1.686146996474999682e+01 9.103499960570907490e+00 1.751970705342578150e+00 1.686146994799999632e+01 -1.517250238181597322e+00 4.379919902092511919e+00 1.686147000400000096e+01 1.517249761818393772e+00 4.379920131592529131e+00 1.686146998725000046e+01 4.551749761818385309e+00 4.379920361092545456e+00 1.686146997049999996e+01 7.586249761818375958e+00 4.379920590592562668e+00 1.686146995374999946e+01 -3.034500436934884693e+00 7.007879787342496058e+00 1.686147000974999699e+01 -4.369348936292667556e-07 7.007880016842512383e+00 1.686146999299999294e+01 3.034499563065097494e+00 7.007880246342529595e+00 1.686146997624999244e+01 6.068999563065088587e+00 7.007880475842545920e+00 1.686146995949999194e+01 -4.551750635687415780e+00 9.635829672592480577e+00 1.686147001550000013e+01 -1.517250635687424687e+00 9.635829902092496013e+00 1.686146999874999608e+01 1.517249364312566406e+00 9.635830131592513226e+00 1.686146998199999558e+01 4.551749364312557944e+00 9.635830361092530438e+00 1.686146996524999508e+01 1.517249940112195050e+00 8.759801159014212191e-01 1.152709990750003355e+00 4.551749940112186366e+00 8.759803454014380986e-01 1.152709974000001969e+00 7.586249940112177015e+00 8.759805749014548670e-01 1.152709957250000361e+00 1.062074994011216944e+01 8.759808044014717465e-01 1.152709940499998975e+00 -2.586410924526745067e-07 3.503940001151405248e+00 1.152709996499996725e+00 3.034499741358898550e+00 3.503940230651422016e+00 1.152709979749995117e+00 6.068999741358890532e+00 3.503940460151438785e+00 1.152709962999993731e+00 9.103499741358881181e+00 3.503940689651455997e+00 1.152709946249992345e+00 -1.517250457393623631e+00 6.131889886401388878e+00 1.152710002249999865e+00 1.517249542606367463e+00 6.131890115901406091e+00 1.152709985499998480e+00 4.551749542606359000e+00 6.131890345401422415e+00 1.152709968749997094e+00 7.586249542606349650e+00 6.131890574901439628e+00 1.152709951999995486e+00 -3.034500656146911002e+00 8.759849771651373018e+00 1.152710007999993236e+00 -6.561469199184986024e-07 8.759850001151390231e+00 1.152709991249991850e+00 3.034499343853071185e+00 8.759850230651407443e+00 1.152709974499990242e+00 6.068999343853062278e+00 8.759850460151422880e+00 1.152709957749988856e+00
-6.059010695575968164e+00 1.051181955974942994e+01 1.801418002294484921e+01 -3.034500795010889540e+00 1.051180977049995313e+01 6.250001722416990252e-09 -6.955752297793648516e-07 1.051181001799391801e+01 1.801417998950000054e+01 9.103499999999973724e+00 6.885000504330014696e-07 -5.025000437222998319e-08 1.062074980124743284e+01 2.627950803250051148e+00 -6.125000253749203903e-08 1.517249801247460006e+00 2.627950114750000399e+00 -1.099999816526205749e-08 4.551749801247451543e+00 2.627950344250017611e+00 -2.774999962267205134e-08 7.586249801247442193e+00 2.627950573750034380e+00 -4.450000108008204022e-08 -3.034500298070149427e+00 5.255909788493916324e+00 1.801418001149999526e+01 -3.975058274658240956e-07 5.255909999999984983e+00 -5.250004861878884931e-09 3.034499701929832760e+00 5.255910247493949861e+00 1.801417997799999426e+01 6.068999602494154821e+00 5.255910459000018520e+00 -3.875000777669887676e-08 7.586249403741614827e+00 7.883860573750019363e+00 -4.975000594196092598e-08 -1.517250596258358675e+00 7.883859885249969501e+00 4.999984302690526601e-10 1.517249403741632419e+00 7.883860114749985826e+00 -1.625000302714094160e-08 4.551749403741624178e+00 7.883860344250003038e+00 -3.300000448455093379e-08 -3.942906616344270633e-08 1.751970016842527622e+00 1.686146999824999781e+01 3.034499960626123816e+00 1.751970246352533289e+00 1.687146998149999533e+01 6.068999960570915952e+00 1.751970475842561381e+00 1.686146996474999682e+01 9.103499960570907490e+00 1.751970705342578150e+00 1.686146994799999632e+01 -1.517250238181597322e+00 4.379919902092511919e+00 1.686147000400000096e+01 1.517249761818393772e+00 4.379920131592529131e+00 1.686146998725000046e+01 4.551749761818385309e+00 4.379920361092545456e+00 1.686146997049999996e+01 7.586249761818375958e+00 4.379920590592562668e+00 1.686146995374999946e+01 -3.034500436934884693e+00 7.007879787342496058e+00 1.686147000974999699e+01 -4.369348936292667556e-07 7.007880016842512383e+00 1.686146999299999294e+01 3.034499563065097494e+00 7.007880246342529595e+00 1.686146997624999244e+01 6.068999563065088587e+00 7.007880475842545920e+00 1.686146995949999194e+01 -4.551750635687415780e+00 9.635829672592480577e+00 1.686147001550000013e+01 -1.517250635687424687e+00 9.635829902092496013e+00 1.686146999874999608e+01 1.517249364312566406e+00 9.635830131592513226e+00 1.686146998199999558e+01 4.551749364312557944e+00 9.635830361092530438e+00 1.686146996524999508e+01 1.517249940112195050e+00 8.759801159014212191e-01 1.152709990750003355e+00 4.551749940112186366e+00 8.759803454014380986e-01 1.152709974000001969e+00 7.586249940112177015e+00 8.759805749014548670e-01 1.152709957250000361e+00 1.062074994011216944e+01 8.759808044014717465e-01 1.152709940499998975e+00 -2.586410924526745067e-07 3.503940001151405248e+00 1.152709996499996725e+00 3.034499741358898550e+00 3.503940230651422016e+00 1.152709979749995117e+00 6.068999741358890532e+00 3.503940460151438785e+00 1.152709962999993731e+00 9.103499741358881181e+00 3.503940689651455997e+00 1.152709946249992345e+00 -1.517250457393623631e+00 6.131889886401388878e+00 1.152710002249999865e+00 1.517249542606367463e+00 6.131890115901406091e+00 1.152709985499998480e+00 4.551749542606359000e+00 6.131890345401422415e+00 1.152709968749997094e+00 7.586249542606349650e+00 6.131890574901439628e+00 1.152709951999995486e+00 -3.034500656146911002e+00 8.759849771651373018e+00 1.152710007999993236e+00 -6.561469199184986024e-07 8.759850001151390231e+00 1.152709991249991850e+00 3.034499343853071185e+00 8.759850230651407443e+00 1.152709974499990242e+00 6.068999343853062278e+00 8.759850460151422880e+00 1.152709957749988856e+00
-6.059020695575968674e+00 1.051181955974867321e+01 1.801418002294490606e+01 -3.034500795010889540e+00 1.051180977049995313e+01 6.250001722416990252e-09 -6.955752297793648516e-07 1.051181001799391801e+01 1.801417998950000054e+01 9.103499999999973724e+00 6.885000504330014696e-07 -5.025000437222998319e-08 1.062074980124743284e+01 2.627950803250051148e+00 -6.125000253749203903e-08 1.517249801247460006e+00 2.627950114750000399e+00 -1.099999816526205749e-08 4.551749801247451543e+00 2.627950344250017611e+00 -2.774999962267205134e-08 7.586249801247442193e+00 2.627950573750034380e+00 -4.450000108008204022e-08 -3.034500298070149427e+00 5.255909788493916324e+00 1.801418001149999526e+01 -3.975058274658240956e-07 5.255909999999984983e+00 -5.250004861878884931e-09 3.034499701929832760e+00 5.255910247493949861e+00 1.801417997799999426e+01 6.068999602494154821e+00 5.255910459000018520e+00 -3.875000777669887676e-08 7.586249403741614827e+00 7.883860573750019363e+00 -4.975000594196092598e-08 -1.517250596258358675e+00 7.883859885249969501e+00 4.999984302690526601e-10 1.517249403741632419e+00 7.883860114749985826e+00 -1.625000302714094160e-08 4.551749403741624178e+00 7.883860344250003038e+00 -3.300000448455093379e-08 -3.942906616344270633e-08 1.751970016842527622e+00 1.686146999824999781e+01 3.034499960626123816e+00 1.751970246352533289e+00 1.687146998149999533e+01 6.068999960570915952e+00 1.751970475842561381e+00 1.686146996474999682e+01 9.103499960570907490e+00 1.751970705342578150e+00 1.686146994799999632e+01 -1.517250238181597322e+00 4.379919902092511919e+00 1.686147000400000096e+01 1.517249761818393772e+00 4.379920131592529131e+00 1.686146998725000046e+01 4.551749761818385309e+00 4.379920361092545456e+00 1.686146997049999996e+01 7.586249761818375958e+00 4.379920590592562668e+00 1.686146995374999946e+01 -3.034500436934884693e+00 7.007879787342496058e+00 1.686147000974999699e+01 -4.369348936292667556e-07 7.007880016842512383e+00 1.686146999299999294e+01 3.034499563065097494e+00 7.007880246342529595e+00 1.686146997624999244e+01 6.068999563065088587e+00 7.007880475842545920e+00 1.686146995949999194e+01 -4.551750635687415780e+00 9.635829672592480577e+00 1.686147001550000013e+01 -1.517250635687424687e+00 9.635829902092496013e+00 1.686146999874999608e+01 1.517249364312566406e+00 9.635830131592513226e+00 1.686146998199999558e+01 4.551749364312557944e+00 9.635830361092530438e+00 1.686146996524999508e+01 1.517249940112195050e+00 8.759801159014212191e-01 1.152709990750003355e+00 4.551749940112186366e+00 8.759803454014380986e-01 1.152709974000001969e+00 7.586249940112177015e+00 8.759805749014548670e-01 1.152709957250000361e+00 1.062074994011216944e+01 8.759808044014717465e-01 1.152709940499998975e+00 -2.586410924526745067e-07 3.503940001151405248e+00 1.152709996499996725e+00 3.034499741358898550e+00 3.503940230651422016e+00 1.152709979749995117e+00 6.068999741358890532e+00 3.503940460151438785e+00 1.152709962999993731e+00 9.103499741358881181e+00 3.503940689651455997e+00 1.152709946249992345e+00 -1.517250457393623631e+00 6.131889886401388878e+00 1.152710002249999865e+00 1.517249542606367463e+00 6.131890115901406091e+00 1.152709985499998480e+00 4.551749542606359000e+00 6.131890345401422415e+00 1.152709968749997094e+00 7.586249542606349650e+00 6.131890574901439628e+00 1.152709951999995486e+00 -3.034500656146911002e+00 8.759849771651373018e+00 1.152710007999993236e+00 -6.561469199184986024e-07 8.759850001151390231e+00 1.152709991249991850e+00 3.034499343853071185e+00 8.759850230651407443e+00 1.152709974499990242e+00 6.068999343853062278e+00 8.759850460151422880e+00 1.152709957749988856e+00
-6.059030695575968295e+00 1.051181955974791826e+01 1.801418002294495935e+01 -3.034500795010889540e+00 1.051180977049995313e+01 6.250001722416990252e-09 -6.955752297793648516e-07 1.051181001799391801e+01 1.801417998950000054e+01 9.103499999999973724e+00 6.885000504330014696e-07 -5.025000437222998319e-08 1.062074980124743284e+01 2.627950803250051148e+00 -6.125000253749203903e-08 1.517249801246703722e+00 2.627960114750000464e+00 -1.100000815402682211e-08 4.551749801246694815e+00 2.627960344250017677e+00 -2.775000961143681761e-08 7.586249801247442193e+00 2.627950573750034380e+00 -4.450000108008204022e-08 -3.034500298070149427e+00 5.255909788493916324e+00 1.801418001149999526e+01 -3.975058274658240956e-07 5.255909999999984983e+00 -5.250004861878884931e-09 3.034499701929832760e+00 5.255910247493949861e+00 1.801417997799999426e+01 6.068999602494154821e+00 5.255910459000018520e+00 -3.875000777669887676e-08 7.586249403741614827e+00 7.883860573750019363e+00 -4.975000594196092598e-08 -1.517250596258358675e+00 7.883859885249969501e+00 4.999984302690526601e-10 1.517249403741632419e+00 7.883860114749985826e+00 -1.625000302714094160e-08 4.551749403741624178e+00 7.883860344250003038e+00 -3.300000448455093379e-08 -3.942906616344270633e-08 1.751970016842527622e+00 1.686146999824999781e+01 3.034499960626068304e+00 1.751970246352523297e+00 1.687145998149999571e+01 6.068999960570915952e+00 1.751970475842561381e+00 1.686146996474999682e+01 9.103499960570907490e+00 1.751970705342578150e+00 1.686146994799999632e+01 -1.517250238181597322e+00 4.379919902092511919e+00 1.686147000400000096e+01 1.517249761818393772e+00 4.379920131592529131e+00 1.686146998725000046e+01 4.551749761818385309e+00 4.379920361092545456e+00 1.686146997049999996e+01 7.586249761818375958e+00 4.379920590592562668e+00 1.686146995374999946e+01 -3.034500436934884693e+00 7.007879787342496058e+00 1.686147000974999699e+01 -4.369348936292667556e-07 7.007880016842512383e+00 1.686146999299999294e+01 3.034499563065097494e+00 7.007880246342529595e+00 1.686146997624999244e+01 6.068999563065088587e+00 7.007880475842545920e+00 1.686146995949999194e+01 -4.551750635687415780e+00 9.635829672592480577e+00 1.686147001550000013e+01 -1.517250635687424687e+00 9.635829902092496013e+00 1.686146999874999608e+01 1.517249364312566406e+00 9.635830131592513226e+00 1.686146998199999558e+01 4.551749364312557944e+00 9.635830361092530438e+00 1.686146996524999508e+01 1.517249940112195050e+00 8.759801159014212191e-01 1.152709990750003355e+00 4.551749940112186366e+00 8.759803454014380986e-01 1.152709974000001969e+00 7.586249940112177015e+00 8.759805749014548670e-01 1.152709957250000361e+00 1.062074994011211437e+01 8.759808044014617545e-01 1.152699940499999132e+00 -2.586410924526745067e-07 3.503940001151405248e+00 1.152709996499996725e+00 3.034499741358898550e+00 3.503940230651422016e+00 1.152709979749995117e+00 6.068999741358890532e+00 3.503940460151438785e+00 1.152709962999993731e+00 9.103499741358881181e+00 3.503940689651455997e+00 1.152709946249992345e+00 -1.517250457393623631e+00 6.131889886401388878e+00 1.152710002249999865e+00 1.517249542606367463e+00 6.131890115901406091e+00 1.152709985499998480e+00 4.551749542606359000e+00 6.131890345401422415e+00 1.152709968749997094e+00 7.586249542606349650e+00 6.131890574901439628e+00 1.152709951999995486e+00 -3.034500656146911002e+00 8.759849771651373018e+00 1.152710007999993236e+00 -6.561469199184986024e-07 8.759850001151390231e+00 1.152709991249991850e+00 3.034499343853071185e+00 8.759850230651407443e+00 1.152709974499990242e+00 6.068999343853062278e+00 8.759850460151422880e+00 1.152709957749988856e+00
-6.059060695576023114e+00 1.051181955974563920e+01 1.801417002294512670e+01 -3.034500795010834473e+00 1.051180977049996379e+01 1.000625000172241706e-05 -6.955752849779188914e-07 1.051181001799390913e+01 1.801416998950000092e+01 9.103499999999973724e+00 6.885000504330014696e-07 -5.025000437222998319e-08 1.062074980124743284e+01 2.627950803250051148e+00 -6.125000253749203903e-08 1.517239801246758946e+00 2.627960114749253950e+00 9.989000047044528790e-06 4.551759801246749504e+00 2.627960344250783731e+00 9.972249935190008528e-06 7.586249801247442193e+00 2.627950573750034380e+00 -4.450000108008204022e-08 -3.034500298070149427e+00 5.255909788493916324e+00 1.801418001149999526e+01 -3.975058274658240956e-07 5.255909999999984983e+00 -5.250004861878884931e-09 3.034499701929777249e+00 5.255910247493939202e+00 1.801416997799999464e+01 6.068999602494154821e+00 5.255910459000018520e+00 -3.875000777669887676e-08 7.586249403741614827e+00 7.883860573750019363e+00 -4.975000594196092598e-08 -1.517250596258358675e+00 7.883859885249969501e+00 4.999984302690526601e-10 1.517249403741632419e+00 7.883860114749985826e+00 -1.625000302714094160e-08 4.551749403741624178e+00 7.883860344250003038e+00 -3.300000448455093379e-08 -3.942906616344270633e-08 1.751970016842527622e+00 1.686146999824999781e+01 3.034499960626068304e+00 1.751970246352523297e+00 1.687145998149999571e+01 6.068999960570915952e+00 1.751970475842561381e+00 1.686146996474999682e+01 9.103499960570907490e+00 1.751970705342578150e+00 1.686146994799999632e+01 -1.517250238181597322e+00 4.379919902092511919e+00 1.686147000400000096e+01 1.517249761818393772e+00 4.379920131592529131e+00 1.686146998725000046e+01 4.551749761818385309e+00 4.379920361092545456e+00 1.686146997049999996e+01 7.586249761818375958e+00 4.379920590592562668e+00 1.686146995374999946e+01 -3.034500436934884693e+00 7.007879787342496058e+00 1.686147000974999699e+01 -4.369348936292667556e-07 7.007880016842512383e+00 1.686146999299999294e+01 3.034499563065097494e+00 7.007880246342529595e+00 1.686146997624999244e+01 6.068999563065088587e+00 7.007880475842545920e+00 1.686146995949999194e+01 -4.551750635687415780e+00 9.635829672592480577e+00 1.686147001550000013e+01 -1.517250635687424687e+00 9.635829902092496013e+00 1.686146999874999608e+01 1.517249364312566406e+00 9.635830131592513226e+00 1.686146998199999558e+01 4.551749364312557944e+00 9.635830361092530438e+00 1.686146996524999508e+01 1.517249940111438766e+00 8.759901159014212846e-01 1.152709990749993363e+00 4.551749940112186366e+00 8.759803454014380986e-01 1.152709974000001969e+00 7.586249940112177015e+00 8.759805749014548670e-01 1.152709957250000361e+00 1.062074994011211437e+01 8.759808044014617545e-01 1.152699940499999132e+00 -2.586410924526745067e-07 3.503940001151405248e+00 1.152709996499996725e+00 3.034499741358898550e+00 3.503940230651422016e+00 1.152709979749995117e+00 6.068999741358890532e+00 3.503940460151438785e+00 1.152709962999993731e+00 9.103499741358881181e+00 3.503940689651455997e+00 1.152709946249992345e+00 -1.517250457393623631e+00 6.131889886401388878e+00 1.152710002249999865e+00 1.517249542606367463e+00 6.131890115901406091e+00 1.152709985499998480e+00 4.551749542606359000e+00 6.131890345401422415e+00 1.152709968749997094e+00 7.586249542606349650e+00 6.131890574901439628e+00 1.152709951999995486e+00 -3.034500656146911002e+00 8.759849771651373018e+00 1.152710007999993236e+00 -6.561469199184986024e-07 8.759850001151390231e+00 1.152709991249991850e+00 3.034499343853071185e+00 8.759850230651407443e+00 1.152709974499990242e+00 6.068999343853062278e+00 8.759850460151422880e+00 1.152709957749988856e+00
-6.059090695576023755e+00 1.051181955974337079e+01 1.801417002294529013e+01 -3.034500795010078189e+00 1.051179977049996239e+01 1.000625001171118184e-05 -6.955752849779188914e-07 1.051181001799390913e+01 1.801416998950000092e+01 9.103499999999973724e+00 6.885000504330014696e-07 -5.025000437222998319e-08 1.062074980124743284e+01 2.627950803250051148e+00 -6.125000253749203903e-08 1.517239801246758946e+00 2.627960114749253950e+00 9.989000047044528790e-06 4.551759801246749504e+00 2.627960344250783731e+00 9.972249935190008528e-06 7.586249801247442193e+00 2.627950573750034380e+00 -4.450000108008204022e-08 -3.034500298070149427e+00 5.255909788493916324e+00 1.801418001149999526e+01 -3.975058274658240956e-07 5.255909999999984983e+00 -5.250004861878884931e-09 3.034499701929777249e+00 5.255910247493939202e+00 1.801416997799999464e+01 6.068999602494154821e+00 5.255910459000018520e+00 -3.875000777669887676e-08 7.586249403741614827e+00 7.883860573750019363e+00 -4.975000594196092598e-08 -1.517250596258358675e+00 7.883859885249969501e+00 4.999984302690526601e-10 1.517249403741632419e+00 7.883860114749985826e+00 -1.625000302714094160e-08 4.551749403741624178e+00 7.883860344250003038e+00 -3.300000448455093379e-08 -3.942906616344270633e-08 1.751970016842527622e+00 1.686146999824999781e+01 3.034499960626068304e+00 1.751970246352523297e+00 1.687145998149999571e+01 6.068999960570915952e+00 1.751970475842561381e+00 1.686146996474999682e+01 9.103499960570907490e+00 1.751970705342578150e+00 1.686146994799999632e+01 -1.517250238181597322e+00 4.379919902092511919e+00 1.686147000400000096e+01 1.517249761818393772e+00 4.379920131592529131e+00 1.686146998725000046e+01 4.551749761818385309e+00 4.379920361092545456e+00 1.686146997049999996e+01 7.586249761818375958e+00 4.379920590592562668e+00 1.686146995374999946e+01 -3.034500436934884693e+00 7.007879787342496058e+00 1.686147000974999699e+01 -4.369348936292667556e-07 7.007880016842512383e+00 1.686146999299999294e+01 3.034499563065097494e+00 7.007880246342529595e+00 1.686146997624999244e+01 6.068999563065088587e+00 7.007880475842545920e+00 1.686146995949999194e+01 -4.551750635687415780e+00 9.635829672592480577e+00 1.686147001550000013e+01 -1.517250635687424687e+00 9.635829902092496013e+00 1.686146999874999608e+01 1.517249364312566406e+00 9.635830131592513226e+00 1.686146998199999558e+01 4.551749364312557944e+00 9.635830361092530438e+00 1.686146996524999508e+01 1.517249940111438766e+00 8.759901159014212846e-01 1.152709990749993363e+00 4.551749940112186366e+00 8.759803454014380986e-01 1.152709974000001969e+00 7.586249940112121060e+00 8.759805749014448750e-01 1.152699957250000518e+00 1.062074994011211437e+01 8.759808044014617545e-01 1.152699940499999132e+00 -2.586411476512285465e-07 3.503940001151395034e+00 1.152699996499996882e+00 3.034499741358898550e+00 3.503940230651422016e+00 1.152709979749995117e+00 6.068999741358834576e+00 3.503940460151428571e+00 1.152699962999993888e+00 9.103499741358826114e+00 3.503940689651445783e+00 1.152699946249992502e+00 -1.517250457393678920e+00 6.131889886401379108e+00 1.152700002250000022e+00 1.517249542606312174e+00 6.131890115901396321e+00 1.152699985499998636e+00 4.551749542606303045e+00 6.131890345401412645e+00 1.152699968749997250e+00 7.586249542606293694e+00 6.131890574901429858e+00 1.152699951999995642e+00 -3.034500656146966069e+00 8.759849771651364136e+00 1.152700007999993392e+00 -6.561469751170526421e-07 8.759850001151381349e+00 1.152699991249992006e+00 3.034499343853016118e+00 8.759850230651398562e+00 1.152699974499990399e+00 6.068999343853763051e+00 8.759840460151414376e+00 1.152699957749999005e+00
