9.876063020000000137e+00 0.000000000000000000e+00 0.000000000000000000e+00 0.000000000000000000e+00 1.710584367999999955e+01 0.000000000000000000e+00 0.000000000000000000e+00 0.000000000000000000e+00 1.837936638000000045e+01
9.876063020000000137e+00 0.000000000000000000e+00 0.000000000000000000e+00 0.000000000000000000e+00 1.710584367999999955e+01 0.000000000000000000e+00 0.000000000000000000e+00 0.000000000000000000e+00 1.837936638000000045e+01
9.876063020000000137e+00 0.000000000000000000e+00 0.000000000000000000e+00 0.000000000000000000e+00 1.710584367999999955e+01 0.000000000000000000e+00 0.000000000000000000e+00 0.000000000000000000e+00 1.837936638000000045e+01
9.876063020000000137e+00 0.000000000000000000e+00 0.000000000000000000e+00 0.000000000000000000e+00 1.710584367999999955e+01 0.000000000000000000e+00 0.000000000000000000e+00 0.000000000000000000e+00 1.837936638000000045e+01
9.876063020000000137e+00 0.000000000000000000e+00 0.000000000000000000e+00 0.000000000000000000e+00 1.710584367999999955e+01 0.000000000000000000e+00 0.000000000000000000e+00 0.000000000000000000e+00 1.837936638000000045e+01
