1.399999999999999877e-04 1.710574000000000083e+01 4.295630000000000059e+00 1.646150000000000002e+00 2.850870000000000015e+00 4.295630000000000059e+00 1.299999999999999886e-04 3.801309999999999967e+00 1.806890000000000107e+00 1.646139999999999937e+00 9.503300000000000081e-01 1.806899999999999951e+00 3.292159999999999975e+00 1.710574000000000083e+01 4.295630000000000059e+00 4.938170000000000393e+00 2.850870000000000015e+00 4.295630000000000059e+00 3.292149999999999910e+00 3.801309999999999967e+00 1.806890000000000107e+00 4.938159999999999883e+00 9.503300000000000081e-01 1.806899999999999951e+00 6.584179999999999922e+00 1.710574000000000083e+01 4.295630000000000059e+00 8.230190000000000339e+00 2.850870000000000015e+00 4.295630000000000059e+00 6.584170000000000300e+00 3.801309999999999967e+00 1.806890000000000107e+00 8.230190000000000339e+00 9.503300000000000081e-01 1.806899999999999951e+00 1.399999999999999877e-04 5.701839999999999797e+00 4.295630000000000059e+00 1.646150000000000002e+00 8.552820000000000533e+00 4.295630000000000059e+00 1.299999999999999886e-04 9.503259999999999152e+00 1.806890000000000107e+00 1.646139999999999937e+00 6.652280000000000193e+00 1.806899999999999951e+00 3.292159999999999975e+00 5.701839999999999797e+00 4.295630000000000059e+00 4.938170000000000393e+00 8.552820000000000533e+00 4.295630000000000059e+00 3.292149999999999910e+00 9.503259999999999152e+00 1.806890000000000107e+00 4.938159999999999883e+00 6.652280000000000193e+00 1.806899999999999951e+00 6.584179999999999922e+00 5.701839999999999797e+00 4.295630000000000059e+00 8.230190000000000339e+00 8.552820000000000533e+00 4.295630000000000059e+00 6.584170000000000300e+00 9.503259999999999152e+00 1.806890000000000107e+00 8.230190000000000339e+00 6.652280000000000193e+00 1.806899999999999951e+00 1.399999999999999877e-04 1.140379000000000076e+01 4.295630000000000059e+00 1.646150000000000002e+00 1.425475999999999921e+01 4.295630000000000059e+00 1.299999999999999886e-04 1.520519999999999960e+01 1.806890000000000107e+00 1.646139999999999937e+00 1.235422999999999938e+01 1.806899999999999951e+00 3.292159999999999975e+00 1.140379000000000076e+01 4.295630000000000059e+00 4.938170000000000393e+00 1.425475999999999921e+01 4.295630000000000059e+00 3.292149999999999910e+00 1.520519999999999960e+01 1.806890000000000107e+00 4.938159999999999883e+00 1.235422999999999938e+01 1.806899999999999951e+00 6.584179999999999922e+00 1.140379000000000076e+01 4.295630000000000059e+00 8.230190000000000339e+00 1.425475999999999921e+01 4.295630000000000059e+00 6.584170000000000300e+00 1.520519999999999960e+01 1.806890000000000107e+00 8.230190000000000339e+00 1.235422999999999938e+01 1.806899999999999951e+00 1.399999999999999877e-04 1.710574000000000083e+01 1.042209000000000074e+01 1.646150000000000002e+00 2.850870000000000015e+00 1.042209000000000074e+01 1.299999999999999886e-04 3.801309999999999967e+00 7.933349999999999902e+00 1.646139999999999937e+00 9.503300000000000081e-01 7.933349999999999902e+00 3.292159999999999975e+00 1.710574000000000083e+01 1.042209000000000074e+01 4.938170000000000393e+00 2.850870000000000015e+00 1.042209000000000074e+01 3.292149999999999910e+00 3.801309999999999967e+00 7.933349999999999902e+00 4.938159999999999883e+00 9.503300000000000081e-01 7.933349999999999902e+00 6.584179999999999922e+00 1.710574000000000083e+01 1.042209000000000074e+01 8.230190000000000339e+00 2.850870000000000015e+00 1.042209000000000074e+01 6.584170000000000300e+00 3.801309999999999967e+00 7.933349999999999902e+00 8.230190000000000339e+00 9.503300000000000081e-01 7.933349999999999902e+00 1.399999999999999877e-04 5.701839999999999797e+00 1.042209000000000074e+01 1.646150000000000002e+00 8.552820000000000533e+00 1.042209000000000074e+01 1.299999999999999886e-04 9.503259999999999152e+00 7.933349999999999902e+00 1.646139999999999937e+00 6.652280000000000193e+00 7.933349999999999902e+00 3.292159999999999975e+00 5.701839999999999797e+00 1.042209000000000074e+01 4.938170000000000393e+00 8.552820000000000533e+00 1.042209000000000074e+01 3.292149999999999910e+00 9.503259999999999152e+00 7.933349999999999902e+00 4.938159999999999883e+00 6.652280000000000193e+00 7.933349999999999902e+00 6.584179999999999922e+00 5.701839999999999797e+00 1.042209000000000074e+01 8.230190000000000339e+00 8.552820000000000533e+00 1.042209000000000074e+01 6.584170000000000300e+00 9.503259999999999152e+00 7.933349999999999902e+00 8.230190000000000339e+00 6.652280000000000193e+00 7.933349999999999902e+00 1.399999999999999877e-04 1.140379000000000076e+01 1.042209000000000074e+01 1.646150000000000002e+00 1.425475999999999921e+01 1.042209000000000074e+01 1.299999999999999886e-04 1.520519999999999960e+01 7.933349999999999902e+00 1.646139999999999937e+00 1.235422999999999938e+01 7.933349999999999902e+00 3.292159999999999975e+00 1.140379000000000076e+01 1.042209000000000074e+01 4.938170000000000393e+00 1.425475999999999921e+01 1.042209000000000074e+01 3.292149999999999910e+00 1.520519999999999960e+01 7.933349999999999902e+00 4.938159999999999883e+00 1.235422999999999938e+01 7.933349999999999902e+00 6.584179999999999922e+00 1.140379000000000076e+01 1.042209000000000074e+01 8.230190000000000339e+00 1.425475999999999921e+01 1.042209000000000074e+01 6.584170000000000300e+00 1.520519999999999960e+01 7.933349999999999902e+00 8.230190000000000339e+00 1.235422999999999938e+01 7.933349999999999902e+00 1.399999999999999877e-04 1.710574000000000083e+01 1.654854999999999876e+01 1.646150000000000002e+00 2.850870000000000015e+00 1.654853999999999914e+01 1.299999999999999886e-04 3.801309999999999967e+00 1.405981000000000058e+01 1.646139999999999937e+00 9.503300000000000081e-01 1.405981000000000058e+01 3.292159999999999975e+00 1.710574000000000083e+01 1.654854999999999876e+01 4.938170000000000393e+00 2.850870000000000015e+00 1.654853999999999914e+01 3.292149999999999910e+00 3.801309999999999967e+00 1.405981000000000058e+01 4.938159999999999883e+00 9.503300000000000081e-01 1.405981000000000058e+01 6.584179999999999922e+00 1.710574000000000083e+01 1.654854999999999876e+01 8.230190000000000339e+00 2.850870000000000015e+00 1.654853999999999914e+01 6.584170000000000300e+00 3.801309999999999967e+00 1.405981000000000058e+01 8.230190000000000339e+00 9.503300000000000081e-01 1.405981000000000058e+01 1.399999999999999877e-04 5.701839999999999797e+00 1.654854999999999876e+01 1.646150000000000002e+00 8.552820000000000533e+00 1.654853999999999914e+01 1.299999999999999886e-04 9.503259999999999152e+00 1.405981000000000058e+01 1.646139999999999937e+00 6.652280000000000193e+00 1.405981000000000058e+01 3.292159999999999975e+00 5.701839999999999797e+00 1.654854999999999876e+01 4.938170000000000393e+00 8.552820000000000533e+00 1.654853999999999914e+01 3.292149999999999910e+00 9.503259999999999152e+00 1.405981000000000058e+01 4.938159999999999883e+00 6.652280000000000193e+00 1.405981000000000058e+01 6.584179999999999922e+00 5.701839999999999797e+00 1.654854999999999876e+01 8.230190000000000339e+00 8.552820000000000533e+00 1.654853999999999914e+01 6.584170000000000300e+00 9.503259999999999152e+00 1.405981000000000058e+01 8.230190000000000339e+00 6.652280000000000193e+00 1.405981000000000058e+01 1.399999999999999877e-04 1.140379000000000076e+01 1.654854999999999876e+01 1.646150000000000002e+00 1.425475999999999921e+01 1.654853999999999914e+01 1.299999999999999886e-04 1.520519999999999960e+01 1.405981000000000058e+01 1.646139999999999937e+00 1.235422999999999938e+01 1.405981000000000058e+01 3.292159999999999975e+00 1.140379000000000076e+01 1.654854999999999876e+01 4.938170000000000393e+00 1.425475999999999921e+01 1.654853999999999914e+01 3.292149999999999910e+00 1.520519999999999960e+01 1.405981000000000058e+01 4.938159999999999883e+00 1.235422999999999938e+01 1.405981000000000058e+01 6.584179999999999922e+00 1.140379000000000076e+01 1.654854999999999876e+01 8.230190000000000339e+00 1.425475999999999921e+01 1.654853999999999914e+01 6.584170000000000300e+00 1.520519999999999960e+01 1.405981000000000058e+01 8.230190000000000339e+00 1.235422999999999938e+01 1.405981000000000058e+01 1.399999999999999877e-04 1.900609999999999911e+00 3.051210000000000200e+00 1.399999999999999877e-04 3.801530000000000076e+00 5.167460000000000164e+00 1.646139999999999937e+00 2.850649999999999906e+00 9.350199999999999623e-01 1.299999999999999886e-04 1.710551999999999850e+01 9.350199999999999623e-01 1.646150000000000002e+00 4.751570000000000071e+00 3.051210000000000200e+00 1.646150000000000002e+00 9.505599999999999605e-01 5.167460000000000164e+00 3.292159999999999975e+00 1.900609999999999911e+00 3.051210000000000200e+00 3.292159999999999975e+00 3.801530000000000076e+00 5.167460000000000164e+00 4.938159999999999883e+00 2.850649999999999906e+00 9.350199999999999623e-01 3.292149999999999910e+00 1.710551999999999850e+01 9.350199999999999623e-01 4.938170000000000393e+00 4.751570000000000071e+00 3.051210000000000200e+00 4.938170000000000393e+00 9.505599999999999605e-01 5.167460000000000164e+00 6.584179999999999922e+00 1.900609999999999911e+00 3.051210000000000200e+00 6.584179999999999922e+00 3.801530000000000076e+00 5.167460000000000164e+00 8.230180000000000717e+00 2.850649999999999906e+00 9.350199999999999623e-01 6.584170000000000300e+00 1.710551999999999850e+01 9.350199999999999623e-01 8.230190000000000339e+00 4.751570000000000071e+00 3.051210000000000200e+00 8.230190000000000339e+00 9.505599999999999605e-01 5.167460000000000164e+00 1.399999999999999877e-04 7.602549999999999919e+00 3.051210000000000200e+00 1.399999999999999877e-04 9.503479999999999706e+00 5.167460000000000164e+00 1.646139999999999937e+00 8.552599999999999980e+00 9.350199999999999623e-01 1.299999999999999886e-04 5.701620000000000132e+00 9.350199999999999623e-01 1.646150000000000002e+00 1.045351999999999926e+01 3.051210000000000200e+00 1.646150000000000002e+00 6.652510000000000367e+00 5.167460000000000164e+00 3.292159999999999975e+00 7.602549999999999919e+00 3.051210000000000200e+00 3.292159999999999975e+00 9.503479999999999706e+00 5.167460000000000164e+00 4.938159999999999883e+00 8.552599999999999980e+00 9.350199999999999623e-01 3.292149999999999910e+00 5.701620000000000132e+00 9.350199999999999623e-01 4.938170000000000393e+00 1.045351999999999926e+01 3.051210000000000200e+00 4.938170000000000393e+00 6.652510000000000367e+00 5.167460000000000164e+00 6.584179999999999922e+00 7.602549999999999919e+00 3.051210000000000200e+00 6.584179999999999922e+00 9.503479999999999706e+00 5.167460000000000164e+00 8.230180000000000717e+00 8.552599999999999980e+00 9.350199999999999623e-01 6.584170000000000300e+00 5.701620000000000132e+00 9.350199999999999623e-01 8.230190000000000339e+00 1.045351999999999926e+01 3.051210000000000200e+00 8.230190000000000339e+00 6.652510000000000367e+00 5.167460000000000164e+00 1.399999999999999877e-04 1.330450000000000088e+01 3.051210000000000200e+00 1.399999999999999877e-04 1.520542999999999978e+01 5.167460000000000164e+00 1.646139999999999937e+00 1.425455000000000005e+01 9.350199999999999623e-01 1.299999999999999886e-04 1.140357000000000021e+01 9.350199999999999623e-01 1.646150000000000002e+00 1.615547000000000111e+01 3.051210000000000200e+00 1.646150000000000002e+00 1.235445999999999955e+01 5.167460000000000164e+00 3.292159999999999975e+00 1.330450000000000088e+01 3.051210000000000200e+00 3.292159999999999975e+00 1.520542999999999978e+01 5.167460000000000164e+00 4.938159999999999883e+00 1.425455000000000005e+01 9.350199999999999623e-01 3.292149999999999910e+00 1.140357000000000021e+01 9.350199999999999623e-01 4.938170000000000393e+00 1.615547000000000111e+01 3.051210000000000200e+00 4.938170000000000393e+00 1.235445999999999955e+01 5.167460000000000164e+00 6.584179999999999922e+00 1.330450000000000088e+01 3.051210000000000200e+00 6.584179999999999922e+00 1.520542999999999978e+01 5.167460000000000164e+00 8.230180000000000717e+00 1.425455000000000005e+01 9.350199999999999623e-01 6.584170000000000300e+00 1.140357000000000021e+01 9.350199999999999623e-01 8.230190000000000339e+00 1.615547000000000111e+01 3.051210000000000200e+00 8.230190000000000339e+00 1.235445999999999955e+01 5.167460000000000164e+00 1.399999999999999877e-04 1.900609999999999911e+00 9.177659999999999485e+00 1.399999999999999877e-04 3.801530000000000076e+00 1.129391999999999996e+01 1.646139999999999937e+00 2.850649999999999906e+00 7.061469999999999914e+00 1.299999999999999886e-04 1.710551999999999850e+01 7.061480000000000423e+00 1.646150000000000002e+00 4.751570000000000071e+00 9.177670000000000883e+00 1.646150000000000002e+00 9.505599999999999605e-01 1.129391000000000034e+01 3.292159999999999975e+00 1.900609999999999911e+00 9.177659999999999485e+00 3.292159999999999975e+00 3.801530000000000076e+00 1.129391999999999996e+01 4.938159999999999883e+00 2.850649999999999906e+00 7.061469999999999914e+00 3.292149999999999910e+00 1.710551999999999850e+01 7.061480000000000423e+00 4.938170000000000393e+00 4.751570000000000071e+00 9.177670000000000883e+00 4.938170000000000393e+00 9.505599999999999605e-01 1.129391000000000034e+01 6.584179999999999922e+00 1.900609999999999911e+00 9.177659999999999485e+00 6.584179999999999922e+00 3.801530000000000076e+00 1.129391999999999996e+01 8.230180000000000717e+00 2.850649999999999906e+00 7.061469999999999914e+00 6.584170000000000300e+00 1.710551999999999850e+01 7.061480000000000423e+00 8.230190000000000339e+00 4.751570000000000071e+00 9.177670000000000883e+00 8.230190000000000339e+00 9.505599999999999605e-01 1.129391000000000034e+01 1.399999999999999877e-04 7.602549999999999919e+00 9.177659999999999485e+00 1.399999999999999877e-04 9.503479999999999706e+00 1.129391999999999996e+01 1.646139999999999937e+00 8.552599999999999980e+00 7.061469999999999914e+00 1.299999999999999886e-04 5.701620000000000132e+00 7.061480000000000423e+00 1.646150000000000002e+00 1.045351999999999926e+01 9.177670000000000883e+00 1.646150000000000002e+00 6.652510000000000367e+00 1.129391000000000034e+01 3.292159999999999975e+00 7.602549999999999919e+00 9.177659999999999485e+00 3.292159999999999975e+00 9.503479999999999706e+00 1.129391999999999996e+01 4.938159999999999883e+00 8.552599999999999980e+00 7.061469999999999914e+00 3.292149999999999910e+00 5.701620000000000132e+00 7.061480000000000423e+00 4.938170000000000393e+00 1.045351999999999926e+01 9.177670000000000883e+00 4.938170000000000393e+00 6.652510000000000367e+00 1.129391000000000034e+01 6.584179999999999922e+00 7.602549999999999919e+00 9.177659999999999485e+00 6.584179999999999922e+00 9.503479999999999706e+00 1.129391999999999996e+01 8.230180000000000717e+00 8.552599999999999980e+00 7.061469999999999914e+00 6.584170000000000300e+00 5.701620000000000132e+00 7.061480000000000423e+00 8.230190000000000339e+00 1.045351999999999926e+01 9.177670000000000883e+00 8.230190000000000339e+00 6.652510000000000367e+00 1.129391000000000034e+01 1.399999999999999877e-04 1.330450000000000088e+01 9.177659999999999485e+00 1.399999999999999877e-04 1.520542999999999978e+01 1.129391999999999996e+01 1.646139999999999937e+00 1.425455000000000005e+01 7.061469999999999914e+00 1.299999999999999886e-04 1.140357000000000021e+01 7.061480000000000423e+00 1.646150000000000002e+00 1.615547000000000111e+01 9.177670000000000883e+00 1.646150000000000002e+00 1.235445999999999955e+01 1.129391000000000034e+01 3.292159999999999975e+00 1.330450000000000088e+01 9.177659999999999485e+00 3.292159999999999975e+00 1.520542999999999978e+01 1.129391999999999996e+01 4.938159999999999883e+00 1.425455000000000005e+01 7.061469999999999914e+00 3.292149999999999910e+00 1.140357000000000021e+01 7.061480000000000423e+00 4.938170000000000393e+00 1.615547000000000111e+01 9.177670000000000883e+00 4.938170000000000393e+00 1.235445999999999955e+01 1.129391000000000034e+01 6.584179999999999922e+00 1.330450000000000088e+01 9.177659999999999485e+00 6.584179999999999922e+00 1.520542999999999978e+01 1.129391999999999996e+01 8.230180000000000717e+00 1.425455000000000005e+01 7.061469999999999914e+00 6.584170000000000300e+00 1.140357000000000021e+01 7.061480000000000423e+00 8.230190000000000339e+00 1.615547000000000111e+01 9.177670000000000883e+00 8.230190000000000339e+00 1.235445999999999955e+01 1.129391000000000034e+01 1.399999999999999877e-04 1.900609999999999911e+00 1.530411999999999928e+01 1.399999999999999877e-04 3.801530000000000076e+00 1.742036999999999836e+01 1.646139999999999937e+00 2.850649999999999906e+00 1.318792999999999971e+01 1.299999999999999886e-04 1.710551999999999850e+01 1.318792999999999971e+01 1.646150000000000002e+00 4.751570000000000071e+00 1.530411999999999928e+01 1.646150000000000002e+00 9.505599999999999605e-01 1.742036999999999836e+01 3.292159999999999975e+00 1.900609999999999911e+00 1.530411999999999928e+01 3.292159999999999975e+00 3.801530000000000076e+00 1.742036999999999836e+01 4.938159999999999883e+00 2.850649999999999906e+00 1.318792999999999971e+01 3.292149999999999910e+00 1.710551999999999850e+01 1.318792999999999971e+01 4.938170000000000393e+00 4.751570000000000071e+00 1.530411999999999928e+01 4.938170000000000393e+00 9.505599999999999605e-01 1.742036999999999836e+01 6.584179999999999922e+00 1.900609999999999911e+00 1.530411999999999928e+01 6.584179999999999922e+00 3.801530000000000076e+00 1.742036999999999836e+01 8.230180000000000717e+00 2.850649999999999906e+00 1.318792999999999971e+01 6.584170000000000300e+00 1.710551999999999850e+01 1.318792999999999971e+01 8.230190000000000339e+00 4.751570000000000071e+00 1.530411999999999928e+01 8.230190000000000339e+00 9.505599999999999605e-01 1.742036999999999836e+01 1.399999999999999877e-04 7.602549999999999919e+00 1.530411999999999928e+01 1.399999999999999877e-04 9.503479999999999706e+00 1.742036999999999836e+01 1.646139999999999937e+00 8.552599999999999980e+00 1.318792999999999971e+01 1.299999999999999886e-04 5.701620000000000132e+00 1.318792999999999971e+01 1.646150000000000002e+00 1.045351999999999926e+01 1.530411999999999928e+01 1.646150000000000002e+00 6.652510000000000367e+00 1.742036999999999836e+01 3.292159999999999975e+00 7.602549999999999919e+00 1.530411999999999928e+01 3.292159999999999975e+00 9.503479999999999706e+00 1.742036999999999836e+01 4.938159999999999883e+00 8.552599999999999980e+00 1.318792999999999971e+01 3.292149999999999910e+00 5.701620000000000132e+00 1.318792999999999971e+01 4.938170000000000393e+00 1.045351999999999926e+01 1.530411999999999928e+01 4.938170000000000393e+00 6.652510000000000367e+00 1.742036999999999836e+01 6.584179999999999922e+00 7.602549999999999919e+00 1.530411999999999928e+01 6.584179999999999922e+00 9.503479999999999706e+00 1.742036999999999836e+01 8.230180000000000717e+00 8.552599999999999980e+00 1.318792999999999971e+01 6.584170000000000300e+00 5.701620000000000132e+00 1.318792999999999971e+01 8.230190000000000339e+00 1.045351999999999926e+01 1.530411999999999928e+01 8.230190000000000339e+00 6.652510000000000367e+00 1.742036999999999836e+01 1.399999999999999877e-04 1.330450000000000088e+01 1.530411999999999928e+01 1.399999999999999877e-04 1.520542999999999978e+01 1.742036999999999836e+01 1.646139999999999937e+00 1.425455000000000005e+01 1.318792999999999971e+01 1.299999999999999886e-04 1.140357000000000021e+01 1.318792999999999971e+01 1.646150000000000002e+00 1.615547000000000111e+01 1.530411999999999928e+01 1.646150000000000002e+00 1.235445999999999955e+01 1.742036999999999836e+01 3.292159999999999975e+00 1.330450000000000088e+01 1.530411999999999928e+01 3.292159999999999975e+00 1.520542999999999978e+01 1.742036999999999836e+01 4.938159999999999883e+00 1.425455000000000005e+01 1.318792999999999971e+01 3.292149999999999910e+00 1.140357000000000021e+01 1.318792999999999971e+01 4.938170000000000393e+00 1.615547000000000111e+01 1.530411999999999928e+01 4.938170000000000393e+00 1.235445999999999955e+01 1.742036999999999836e+01 6.584179999999999922e+00 1.330450000000000088e+01 1.530411999999999928e+01 6.584179999999999922e+00 1.520542999999999978e+01 1.742036999999999836e+01 8.230180000000000717e+00 1.425455000000000005e+01 1.318792999999999971e+01 6.584170000000000300e+00 1.140357000000000021e+01 1.318792999999999971e+01 8.230190000000000339e+00 1.615547000000000111e+01 1.530411999999999928e+01 8.230190000000000339e+00 1.235445999999999955e+01 1.742036999999999836e+01