-2.783070974730000216e+03
-2.783035360379999929e+03
-2.782929655540000113e+03
-2.782754511409999850e+03
-2.782511069329999827e+03
