5.000000000000000240e-05 4.107000000000000407e-03 5.379999999999999583e-04 4.800000000000000122e-05 4.348999999999999568e-03 6.030000000000000204e-04 8.799999999999999771e-05 -4.019000000000000003e-03 9.299999999999999727e-05 6.099999999999999872e-05 -4.065000000000000037e-03 3.300000000000000253e-05 3.899999999999999929e-05 4.104000000000000009e-03 6.729999999999999871e-04 -2.249999999999999938e-04 4.305999999999999932e-03 7.190000000000000210e-04 -2.300000000000000002e-05 -4.055999999999999710e-03 2.020000000000000040e-04 -7.799999999999999859e-05 -4.068999999999999700e-03 1.540000000000000028e-04 -1.749999999999999982e-04 4.074999999999999629e-03 6.750000000000000357e-04 -9.100000000000000287e-05 4.390999999999999938e-03 5.760000000000000146e-04 6.999999999999999387e-05 -4.027000000000000197e-03 2.190000000000000106e-04 1.489999999999999897e-04 -4.043999999999999852e-03 5.099999999999999960e-05 4.000000000000000327e-05 4.321000000000000188e-03 2.599999999999999772e-04 9.000000000000000228e-06 4.011999999999999941e-03 4.299999999999999894e-04 1.100000000000000039e-04 -4.348999999999999568e-03 -4.699999999999999724e-05 6.000000000000000152e-06 -4.035000000000000392e-03 2.489999999999999809e-04 -3.199999999999999855e-05 4.242000000000000111e-03 4.159999999999999744e-04 -2.290000000000000098e-04 4.007000000000000145e-03 4.870000000000000197e-04 -5.000000000000000240e-05 -4.323999999999999719e-03 1.800000000000000046e-05 -3.600000000000000091e-05 -4.087000000000000355e-03 2.829999999999999942e-04 -1.039999999999999936e-04 4.270999999999999623e-03 3.919999999999999873e-04 -6.499999999999999431e-05 4.009999999999999676e-03 3.589999999999999984e-04 6.099999999999999872e-05 -4.266999999999999960e-03 -5.000000000000000409e-06 1.540000000000000028e-04 -4.083999999999999957e-03 2.480000000000000108e-04 5.500000000000000196e-05 4.127999999999999725e-03 4.730000000000000046e-04 2.099999999999999884e-05 4.367000000000000222e-03 7.849999999999999990e-04 6.000000000000000152e-05 -4.134999999999999787e-03 2.500000000000000120e-05 3.300000000000000253e-05 -4.294000000000000074e-03 -4.300000000000000165e-05 -3.100000000000000135e-05 4.081999999999999691e-03 5.630000000000000239e-04 -1.389999999999999905e-04 4.393000000000000203e-03 8.400000000000000348e-04 3.899999999999999929e-05 -4.132000000000000256e-03 9.500000000000000523e-05 4.500000000000000283e-05 -4.250999999999999571e-03 3.800000000000000209e-05 -1.179999999999999951e-04 4.179000000000000423e-03 4.949999999999999973e-04 -1.550000000000000000e-04 4.381999999999999611e-03 7.079999999999999705e-04 4.100000000000000047e-05 -4.264999999999999694e-03 1.269999999999999970e-04 3.600000000000000091e-05 -4.251999999999999703e-03 -4.300000000000000165e-05 9.699999999999999963e-05 4.218000000000000395e-03 -2.840000000000000185e-04 1.879999999999999890e-04 4.104000000000000009e-03 -4.090000000000000211e-04 6.499999999999999431e-05 -4.388000000000000407e-03 -1.510000000000000112e-04 1.630000000000000047e-04 -4.138000000000000185e-03 -3.029999999999999924e-04 1.160000000000000007e-04 4.185000000000000352e-03 -2.169999999999999891e-04 9.999999999999999547e-07 4.086000000000000222e-03 -3.200000000000000262e-04 1.299999999999999886e-04 -4.356999999999999762e-03 -2.550000000000000183e-04 -1.500000000000000038e-05 -4.076999999999999895e-03 -3.939999999999999817e-04 -1.499999999999999869e-04 4.268000000000000092e-03 -2.739999999999999923e-04 -1.029999999999999964e-04 4.134999999999999787e-03 -4.159999999999999744e-04 -1.610000000000000103e-04 -4.394999999999999601e-03 -1.649999999999999991e-04 -9.299999999999999727e-05 -4.101999999999999744e-03 -3.009999999999999980e-04 4.300000000000000165e-05 4.142999999999999981e-03 -4.420000000000000101e-04 2.110000000000000059e-04 4.287000000000000012e-03 -4.360000000000000269e-04 1.450000000000000009e-04 -4.078000000000000028e-03 -2.469999999999999865e-04 2.069999999999999900e-04 -4.068999999999999700e-03 -1.389999999999999905e-04 1.440000000000000036e-04 4.119000000000000265e-03 -4.040000000000000080e-04 -8.700000000000000051e-05 4.225999999999999722e-03 -3.550000000000000096e-04 2.799999999999999958e-05 -4.081999999999999691e-03 -2.590000000000000071e-04 -8.299999999999999815e-05 -4.119000000000000265e-03 -1.299999999999999886e-04 -1.150000000000000035e-04 4.132000000000000256e-03 -4.360000000000000269e-04 -6.399999999999999710e-05 4.204000000000000271e-03 -4.130000000000000099e-04 -1.219999999999999974e-04 -4.098000000000000080e-03 -1.820000000000000057e-04 -9.100000000000000287e-05 -4.125000000000000194e-03 -6.899999999999999667e-05 1.710000000000000094e-04 4.480999999999999740e-03 -1.849999999999999973e-04 2.020000000000000040e-04 4.076999999999999895e-03 -1.700000000000000122e-04 1.359999999999999989e-04 -4.268000000000000092e-03 -4.989999999999999861e-04 1.610000000000000103e-04 -4.027000000000000197e-03 -2.939999999999999905e-04 7.799999999999999859e-05 4.448999999999999830e-03 -1.320000000000000101e-04 -8.399999999999999535e-05 4.072000000000000099e-03 -1.610000000000000103e-04 8.299999999999999815e-05 -4.270000000000000358e-03 -5.429999999999999714e-04 -8.200000000000000095e-05 -3.952999999999999917e-03 -2.979999999999999793e-04 -1.589999999999999888e-04 4.477000000000000077e-03 -1.430000000000000064e-04 -2.599999999999999840e-05 4.100000000000000346e-03 -1.710000000000000094e-04 -1.710000000000000094e-04 -4.257000000000000367e-03 -5.540000000000000219e-04 -3.000000000000000076e-05 -4.049999999999999781e-03 -2.910000000000000260e-04 -6.899999999999999667e-05 4.210000000000000200e-03 -4.380000000000000213e-04 -1.499999999999999869e-04 4.134999999999999787e-03 -4.710000000000000102e-04 6.899999999999999667e-05 -4.040000000000000188e-03 1.054999999999999948e-03 1.579999999999999916e-04 -4.159000000000000370e-03 9.669999999999999776e-04 -2.130000000000000003e-04 4.238999999999999713e-03 -4.970000000000000459e-04 -2.429999999999999977e-04 4.166999999999999697e-03 -5.980000000000000072e-04 1.589999999999999888e-04 -4.042999999999999719e-03 9.389999999999999476e-04 -5.199999999999999680e-05 -4.052000000000000046e-03 8.249999999999999955e-04 -1.550000000000000000e-04 4.217000000000000262e-03 -5.410000000000000312e-04 -5.300000000000000078e-05 4.172999999999999626e-03 -4.870000000000000197e-04 -9.799999999999999684e-05 -4.026000000000000065e-03 9.190000000000000035e-04 3.199999999999999855e-05 -4.113000000000000336e-03 9.520000000000000467e-04 -1.379999999999999933e-04 4.054999999999999577e-03 -5.810000000000000277e-04 -1.330000000000000073e-04 4.322999999999999586e-03 -4.119999999999999856e-04 6.700000000000000226e-05 -4.206999999999999802e-03 9.700000000000000505e-04 1.610000000000000103e-04 -4.225999999999999722e-03 1.012000000000000096e-03 -1.420000000000000092e-04 4.107999999999999673e-03 -7.200000000000000453e-04 -1.649999999999999991e-04 4.294000000000000074e-03 -5.460000000000000443e-04 1.359999999999999989e-04 -4.191000000000000281e-03 8.589999999999999546e-04 2.099999999999999884e-05 -4.166000000000000432e-03 9.370000000000000074e-04 -1.779999999999999898e-04 4.160999999999999768e-03 -7.500000000000000156e-04 -1.550000000000000000e-04 4.329999999999999648e-03 -4.360000000000000269e-04 -6.999999999999999387e-05 -4.218999999999999660e-03 9.060000000000000128e-04 -4.699999999999999724e-05 -4.218999999999999660e-03 1.000999999999999937e-03 -1.000000000000000048e-04 4.080000000000000293e-03 -3.249999999999999851e-04 -1.310000000000000129e-04 4.329000000000000382e-03 -3.400000000000000244e-04 1.259999999999999998e-04 -4.060000000000000241e-03 9.349999999999999587e-04 1.759999999999999954e-04 -4.301000000000000136e-03 6.830000000000000134e-04 -2.049999999999999956e-04 4.065000000000000037e-03 -4.090000000000000211e-04 -1.890000000000000133e-04 4.333000000000000046e-03 -3.869999999999999742e-04 3.499999999999999693e-05 -4.029999999999999728e-03 8.260000000000000198e-04 7.999999999999999638e-06 -4.350999999999999833e-03 6.470000000000000057e-04 -1.259999999999999998e-04 4.066000000000000170e-03 -3.989999999999999949e-04 -1.079999999999999960e-04 4.321000000000000188e-03 -3.150000000000000131e-04 -6.999999999999999895e-06 -4.095999999999999815e-03 9.030000000000000483e-04 -3.899999999999999929e-05 -4.338999999999999975e-03 7.659999999999999708e-04 2.020000000000000040e-04 3.970000000000000005e-04 1.428000000000000016e-03 3.159999999999999832e-04 -1.121699999999999954e-02 4.971999999999999857e-03 2.339999999999999958e-04 1.126500000000000071e-02 -4.579999999999999870e-03 4.440000000000000045e-04 1.082100000000000076e-02 -5.023999999999999820e-03 2.439999999999999949e-04 2.660000000000000146e-04 1.817000000000000039e-03 4.769999999999999934e-04 -1.117800000000000044e-02 5.696999999999999807e-03 -6.799999999999999946e-05 4.270000000000000249e-04 1.608000000000000054e-03 1.530000000000000056e-04 -1.121400000000000001e-02 5.242000000000000132e-03 -2.190000000000000106e-04 1.144900000000000084e-02 -4.343999999999999771e-03 -6.200000000000000270e-05 1.073299999999999949e-02 -5.146999999999999666e-03 -2.190000000000000106e-04 2.919999999999999961e-04 1.948999999999999995e-03 -4.090000000000000211e-04 -1.112699999999999974e-02 5.923000000000000313e-03 -2.249999999999999938e-04 5.540000000000000219e-04 1.546000000000000065e-03 -3.299999999999999982e-04 -1.104300000000000073e-02 5.131000000000000144e-03 2.339999999999999958e-04 1.152599999999999979e-02 -4.388000000000000407e-03 -9.399999999999999448e-05 1.077700000000000012e-02 -4.938999999999999814e-03 -1.050000000000000044e-04 2.660000000000000146e-04 1.786000000000000044e-03 -3.600000000000000091e-05 -1.116800000000000084e-02 5.543000000000000184e-03 2.010000000000000068e-04 -3.510000000000000208e-04 1.732000000000000033e-03 2.039999999999999984e-04 -1.182399999999999944e-02 4.759000000000000209e-03 3.869999999999999742e-04 1.163499999999999951e-02 -5.055999999999999731e-03 2.530000000000000239e-04 1.134100000000000039e-02 -4.256000000000000234e-03 3.119999999999999944e-04 -1.459999999999999981e-04 9.640000000000000131e-04 4.319999999999999838e-04 -1.180400000000000026e-02 4.563000000000000216e-03 7.899999999999999579e-05 -2.169999999999999891e-04 1.864999999999999904e-03 2.429999999999999977e-04 -1.183700000000000030e-02 4.839000000000000419e-03 -7.299999999999999903e-05 1.174000000000000044e-02 -4.867999999999999931e-03 8.799999999999999771e-05 1.155199999999999977e-02 -4.147999999999999778e-03 -1.890000000000000133e-04 -1.710000000000000094e-04 1.079000000000000098e-03 -2.120000000000000031e-04 -1.173899999999999944e-02 4.772000000000000200e-03 -3.020000000000000223e-04 -3.139999999999999888e-04 1.858999999999999975e-03 -3.310000000000000225e-04 -1.198300000000000060e-02 4.706000000000000114e-03 -1.200000000000000030e-05 1.169199999999999927e-02 -5.151000000000000197e-03 -2.400000000000000061e-05 1.144700000000000058e-02 -4.099000000000000213e-03 -1.530000000000000056e-04 -1.420000000000000092e-04 8.880000000000000089e-04 -1.759999999999999954e-04 -1.181600000000000011e-02 4.381999999999999611e-03 2.669999999999999847e-04 6.299999999999999990e-05 5.720000000000000258e-04 4.360000000000000269e-04 -1.166599999999999929e-02 5.799000000000000335e-03 3.759999999999999779e-04 1.106999999999999998e-02 -5.610999999999999668e-03 3.690000000000000246e-04 1.138499999999999929e-02 -5.720000000000000258e-03 2.290000000000000098e-04 -1.679999999999999907e-04 1.085999999999999943e-03 4.829999999999999767e-04 -1.132799999999999953e-02 5.649000000000000375e-03 -1.900000000000000105e-05 9.999999999999999547e-07 7.140000000000000079e-04 1.510000000000000112e-04 -1.158099999999999928e-02 6.248000000000000081e-03 -2.380000000000000117e-04 1.089399999999999917e-02 -5.497000000000000150e-03 1.129999999999999955e-04 1.134899999999999971e-02 -5.514999999999999937e-03 -3.080000000000000055e-04 -2.269999999999999882e-04 1.185000000000000072e-03 -2.149999999999999947e-04 -1.145400000000000064e-02 5.778000000000000150e-03 -3.150000000000000131e-04 -5.300000000000000078e-05 6.030000000000000204e-04 -4.650000000000000270e-04 -1.168699999999999947e-02 5.998999999999999992e-03 1.769999999999999926e-04 1.095199999999999993e-02 -5.552999999999999776e-03 -1.710000000000000094e-04 1.123000000000000040e-02 -5.568000000000000033e-03 5.700000000000000314e-05 -2.090000000000000115e-04 1.092000000000000089e-03 3.899999999999999929e-05 -1.134300000000000065e-02 5.547999999999999980e-03 2.660000000000000146e-04 1.029999999999999964e-04 9.000000000000000567e-05 1.600000000000000131e-04 -1.068799999999999958e-02 5.492999999999999619e-03 5.940000000000000184e-04 1.162299999999999965e-02 -7.453000000000000423e-03 4.780000000000000178e-04 1.105800000000000012e-02 -6.878999999999999698e-03 5.240000000000000517e-04 5.940000000000000184e-04 1.910000000000000077e-04 4.209999999999999875e-04 -1.206300000000000081e-02 5.812000000000000326e-03 2.410000000000000033e-04 8.399999999999999535e-05 -3.300000000000000253e-05 2.339999999999999958e-04 -1.069400000000000038e-02 5.433000000000000329e-03 -2.559999999999999884e-04 1.161700000000000059e-02 -7.425000000000000176e-03 1.720000000000000066e-04 1.096300000000000052e-02 -6.995000000000000349e-03 -2.329999999999999986e-04 6.470000000000000057e-04 3.249999999999999851e-04 -2.660000000000000146e-04 -1.190000000000000085e-02 5.845999999999999634e-03 -5.069999999999999637e-04 2.130000000000000003e-04 1.069999999999999988e-04 -5.050000000000000235e-04 -1.064099999999999942e-02 5.470000000000000036e-03 -7.899999999999999579e-05 1.173199999999999937e-02 -7.460999999999999750e-03 -4.620000000000000083e-04 1.103400000000000040e-02 -6.934000000000000059e-03 -2.339999999999999958e-04 6.239999999999999887e-04 3.669999999999999760e-04 -1.740000000000000010e-04 -1.195799999999999988e-02 5.904999999999999659e-03 1.679999999999999907e-04 1.430000000000000064e-04 9.499999999999999981e-04 1.579999999999999916e-04 -1.084700000000000074e-02 6.071000000000000008e-03 5.540000000000000219e-04 1.104499999999999926e-02 -6.461999999999999862e-03 3.379999999999999758e-04 1.137400000000000043e-02 -7.204000000000000334e-03 4.780000000000000178e-04 1.910000000000000077e-04 1.502999999999999996e-03 3.840000000000000097e-04 -1.068599999999999932e-02 5.592999999999999881e-03 2.620000000000000258e-04 1.600000000000000131e-04 1.062000000000000010e-03 2.599999999999999772e-04 -1.066800000000000040e-02 6.133000000000000430e-03 -1.150000000000000035e-04 1.097700000000000065e-02 -6.487999999999999844e-03 3.409999999999999945e-04 1.132700000000000026e-02 -7.154999999999999902e-03 -2.649999999999999903e-04 1.350000000000000017e-04 1.606000000000000006e-03 -1.330000000000000073e-04 -1.057300000000000080e-02 5.904999999999999659e-03 -4.429999999999999802e-04 1.939999999999999993e-04 1.095000000000000053e-03 -6.489999999999999459e-04 -1.083699999999999941e-02 6.159000000000000412e-03 -1.069999999999999988e-04 1.108400000000000010e-02 -6.372000000000000060e-03 -4.299999999999999894e-04 1.141799999999999933e-02 -7.099000000000000275e-03 -2.239999999999999966e-04 7.700000000000000139e-05 1.386000000000000079e-03 -3.260000000000000094e-04 -1.067899999999999926e-02 5.727000000000000320e-03 3.249999999999999851e-04 -2.400000000000000061e-04 1.314000000000000064e-03 4.020000000000000136e-04 -1.234400000000000081e-02 6.016999999999999779e-03 5.619999999999999996e-04 1.127399999999999930e-02 -6.579999999999999911e-03 3.490000000000000263e-04 1.144399999999999931e-02 -6.454999999999999800e-03 5.140000000000000254e-04 -7.190000000000000210e-04 5.699999999999999772e-04 5.259999999999999919e-04 -1.145900000000000044e-02 6.622000000000000282e-03 2.439999999999999949e-04 -2.900000000000000017e-04 1.284999999999999901e-03 6.999999999999999895e-06 -1.240199999999999983e-02 6.065000000000000079e-03 -2.709999999999999735e-04 1.128000000000000010e-02 -6.657999999999999856e-03 2.900000000000000017e-04 1.145999999999999970e-02 -6.414999999999999696e-03 -3.289999999999999739e-04 -6.780000000000000002e-04 5.509999999999999490e-04 -3.860000000000000041e-04 -1.165199999999999916e-02 6.557999999999999594e-03 -5.310000000000000050e-04 -3.170000000000000075e-04 1.281000000000000021e-03 -4.459999999999999989e-04 -1.238900000000000071e-02 5.851000000000000298e-03 -7.799999999999999859e-05 1.134100000000000039e-02 -6.412000000000000165e-03 -3.849999999999999798e-04 1.143800000000000025e-02 -6.369999999999999794e-03 -9.399999999999999448e-05 -6.980000000000000527e-04 6.459999999999999814e-04 -3.809999999999999910e-04 -1.153799999999999965e-02 6.457000000000000066e-03 2.519999999999999996e-04 -3.159999999999999832e-04 1.800000000000000046e-05 1.540000000000000028e-04 -1.128299999999999963e-02 6.780999999999999701e-03 4.060000000000000024e-04 1.163100000000000071e-02 -5.344999999999999925e-03 3.480000000000000020e-04 1.056600000000000074e-02 -5.773000000000000353e-03 7.200000000000000182e-05 5.599999999999999509e-04 -9.100000000000000016e-04 1.540000000000000028e-04 -1.184499999999999963e-02 6.583000000000000310e-03 -1.530000000000000056e-04 -4.319999999999999838e-04 -9.899999999999999404e-05 -1.810000000000000085e-04 -1.136999999999999990e-02 6.684999999999999970e-03 -1.389999999999999905e-04 1.175600000000000082e-02 -5.745000000000000107e-03 7.299999999999999903e-05 1.050099999999999992e-02 -6.027000000000000239e-03 -1.800000000000000113e-04 7.110000000000000434e-04 -1.031999999999999931e-03 -5.000000000000000104e-04 -1.192499999999999984e-02 6.421999999999999757e-03 -3.110000000000000243e-04 -2.180000000000000134e-04 -1.340000000000000045e-04 -2.069999999999999900e-04 -1.112499999999999947e-02 6.585999999999999840e-03 -4.000000000000000327e-05 1.177300000000000048e-02 -5.347000000000000190e-03 -3.550000000000000096e-04 1.073499999999999975e-02 -6.028999999999999637e-03 -6.000000000000000152e-05 6.830000000000000134e-04 -8.580000000000000387e-04 1.800000000000000113e-04 -1.181699999999999938e-02 6.610000000000000424e-03 2.599999999999999840e-05 6.870000000000000022e-04 -1.077999999999999965e-03 1.150000000000000035e-04 -1.074899999999999987e-02 6.399000000000000174e-03 5.710000000000000015e-04 1.210999999999999924e-02 -5.190000000000000169e-03 1.559999999999999972e-04 1.226000000000000006e-02 -4.997999999999999839e-03 3.080000000000000055e-04 4.060000000000000024e-04 -9.300000000000000541e-04 1.039999999999999936e-04 -1.079100000000000024e-02 6.743999999999999995e-03 1.090000000000000067e-04 7.739999999999999485e-04 -1.268999999999999946e-03 1.200000000000000030e-05 -1.077299999999999959e-02 6.369999999999999794e-03 -1.520000000000000084e-04 1.212700000000000063e-02 -5.474999999999999832e-03 3.589999999999999984e-04 1.238099999999999964e-02 -5.452000000000000249e-03 -2.410000000000000033e-04 3.840000000000000097e-04 -1.170999999999999949e-03 -1.890000000000000133e-04 -1.076900000000000079e-02 6.566999999999999921e-03 -2.799999999999999755e-04 7.399999999999999894e-04 -1.258000000000000004e-03 -2.759999999999999867e-04 -1.077299999999999959e-02 6.307000000000000106e-03 -2.500000000000000052e-04 1.202199999999999970e-02 -5.157000000000000126e-03 -3.429999999999999889e-04 1.243200000000000034e-02 -5.379000000000000101e-03 -2.610000000000000015e-04 2.660000000000000146e-04 -9.049999999999999885e-04 -7.399999999999999623e-05 -1.088599999999999984e-02 6.530000000000000214e-03 2.759999999999999867e-04 -4.539999999999999765e-04 -2.369999999999999874e-04 2.930000000000000204e-04 -1.201499999999999964e-02 6.267000000000000001e-03 4.319999999999999838e-04 1.048600000000000053e-02 -6.180999999999999862e-03 4.490000000000000176e-04 1.178599999999999960e-02 -5.838000000000000307e-03 2.190000000000000106e-04 -8.360000000000000460e-04 1.340000000000000045e-04 1.659999999999999963e-04 -1.122399999999999960e-02 6.395999999999999776e-03 -7.100000000000000462e-05 -4.910000000000000085e-04 -4.550000000000000008e-04 -2.799999999999999755e-04 -1.202499999999999923e-02 6.303999999999999708e-03 -3.260000000000000094e-04 1.028300000000000047e-02 -6.284999999999999788e-03 2.759999999999999867e-04 1.176499999999999942e-02 -6.224999999999999631e-03 -4.499999999999999877e-04 -8.989999999999999511e-04 -6.000000000000000152e-06 -3.429999999999999889e-04 -1.136099999999999957e-02 6.390999999999999980e-03 -3.480000000000000020e-04 -6.610000000000000207e-04 -4.859999999999999954e-04 -2.570000000000000127e-04 -1.217700000000000032e-02 6.263999999999999603e-03 -4.899999999999999842e-05 1.053899999999999976e-02 -6.093000000000000325e-03 -5.159999999999999656e-04 1.167999999999999941e-02 -5.978999999999999940e-03 6.999999999999999387e-05 -7.849999999999999990e-04 7.100000000000000462e-05 -9.699999999999999963e-05 -1.141799999999999933e-02 6.372000000000000060e-03