2.375589999999999868e+00 3.621269999999999989e+00 3.119580000000000020e+00 1.100290000000000035e+01 4.302999999999999936e+00 1.480860000000000065e+00 2.009729999999999794e+00 1.302079999999999904e+00 1.480890000000000040e+00 5.913299999999999557e+00 3.621269999999999989e+00 3.119569999999999954e+00 3.927470000000000017e+00 4.302999999999999936e+00 1.480860000000000065e+00 5.547450000000000436e+00 1.302070000000000061e+00 1.480879999999999974e+00 9.451029999999999376e+00 3.621280000000000054e+00 3.119569999999999954e+00 7.465180000000000149e+00 4.302999999999999936e+00 1.480860000000000065e+00 9.085169999999999746e+00 1.302079999999999904e+00 1.480879999999999974e+00 1.165423000000000009e+01 5.228839999999999932e+00 6.099429999999999907e+00 2.661080000000000112e+00 2.227910000000000057e+00 6.099450000000000038e+00 4.578809999999999825e+00 5.228830000000000311e+00 6.099420000000000286e+00 6.198800000000000310e+00 2.227920000000000122e+00 6.099450000000000038e+00 8.116509999999999891e+00 5.228830000000000311e+00 6.099420000000000286e+00 9.736510000000000886e+00 2.227920000000000122e+00 6.099440000000000417e+00 3.026930000000000121e+00 4.547130000000000116e+00 7.738139999999999574e+00 6.564650000000000318e+00 4.547109999999999985e+00 7.738139999999999574e+00 1.010235999999999912e+01 4.547109999999999985e+00 7.738129999999999953e+00 3.678259999999999863e+00 5.472959999999999603e+00 1.235671999999999926e+01 1.230558000000000085e+01 6.154679999999999929e+00 1.071799000000000035e+01 3.312409999999999854e+00 3.153760000000000119e+00 1.071801999999999921e+01 7.215980000000000061e+00 5.472959999999999603e+00 1.235670999999999964e+01 5.230139999999999567e+00 6.154679999999999929e+00 1.071799000000000035e+01 6.850139999999999674e+00 3.153750000000000053e+00 1.071801999999999921e+01 1.075370000000000026e+01 5.472949999999999982e+00 1.235670000000000002e+01 8.767870000000000275e+00 6.154679999999999929e+00 1.071799999999999997e+01 1.038785000000000025e+01 3.153750000000000053e+00 1.071801999999999921e+01 7.556199999999999584e-01 6.622220000000000439e+00 3.119580000000000020e+00 2.673379999999999868e+00 9.623150000000000759e+00 3.119580000000000020e+00 2.307529999999999859e+00 7.303939999999999877e+00 1.480869999999999909e+00 4.293330000000000091e+00 6.622230000000000061e+00 3.119580000000000020e+00 6.211100000000000065e+00 9.623139999999999361e+00 3.119580000000000020e+00 5.845240000000000435e+00 7.303930000000000256e+00 1.480879999999999974e+00 7.831039999999999779e+00 6.622230000000000061e+00 3.119580000000000020e+00 9.748810000000000642e+00 9.623139999999999361e+00 3.119569999999999954e+00 9.382949999999999235e+00 7.303950000000000387e+00 1.480879999999999974e+00 2.958870000000000111e+00 8.229789999999999495e+00 6.099459999999999660e+00 6.496579999999999799e+00 8.229770000000000252e+00 6.099440000000000417e+00 1.003429000000000038e+01 8.229789999999999495e+00 6.099459999999999660e+00 1.406959999999999988e+00 7.548060000000000436e+00 7.738139999999999574e+00 3.324710000000000054e+00 1.054898999999999987e+01 7.738150000000000084e+00 4.944670000000000343e+00 7.548060000000000436e+00 7.738150000000000084e+00 6.862429999999999808e+00 1.054898000000000025e+01 7.738129999999999953e+00 8.482390000000000541e+00 7.548060000000000436e+00 7.738139999999999574e+00 1.040015000000000001e+01 1.054898999999999987e+01 7.738129999999999953e+00 2.058289999999999953e+00 8.473890000000000811e+00 1.235670999999999964e+01 3.976059999999999928e+00 1.147483000000000075e+01 1.235670000000000002e+01 3.610199999999999854e+00 9.155620000000000758e+00 1.071801999999999921e+01 5.596009999999999707e+00 8.473910000000000053e+00 1.235671999999999926e+01 7.513770000000000060e+00 1.147481999999999935e+01 1.235670999999999964e+01 7.147910000000000430e+00 9.155620000000000758e+00 1.071800999999999959e+01 9.133729999999999905e+00 8.473900000000000432e+00 1.235670999999999964e+01 1.105148999999999937e+01 1.147481999999999935e+01 1.235670000000000002e+01 1.068562999999999974e+01 9.155609999999999360e+00 1.071801999999999921e+01 1.130068999999999946e+01 1.030485000000000007e+01 1.480850000000000000e+00 4.225270000000000081e+00 1.030485999999999969e+01 1.480869999999999909e+00 7.762979999999999769e+00 1.030486999999999931e+01 1.480860000000000065e+00 1.053399999999999892e+00 1.262409000000000070e+01 3.119580000000000020e+00 2.605309999999999793e+00 1.330580999999999925e+01 1.480890000000000040e+00 4.591109999999999580e+00 1.262409000000000070e+01 3.119569999999999954e+00 6.143030000000000435e+00 1.330580999999999925e+01 1.480890000000000040e+00 8.128830000000000666e+00 1.262409000000000070e+01 3.119590000000000085e+00 9.680759999999999366e+00 1.330579999999999963e+01 1.480890000000000040e+00 1.195203000000000060e+01 1.123071000000000019e+01 6.099429999999999907e+00 4.876590000000000202e+00 1.123070000000000057e+01 6.099429999999999907e+00 8.414310000000000400e+00 1.123071000000000019e+01 6.099420000000000286e+00 3.256650000000000045e+00 1.423164000000000051e+01 6.099440000000000417e+00 6.794369999999999798e+00 1.423164000000000051e+01 6.099450000000000038e+00 1.033209000000000088e+01 1.423164000000000051e+01 6.099450000000000038e+00 1.704739999999999922e+00 1.354992000000000019e+01 7.738150000000000084e+00 5.242460000000000342e+00 1.354992000000000019e+01 7.738150000000000084e+00 8.780179999999999652e+00 1.354992999999999981e+01 7.738150000000000084e+00 1.260336000000000034e+01 1.215653000000000006e+01 1.071799999999999997e+01 5.527929999999999566e+00 1.215653000000000006e+01 1.071799999999999997e+01 9.065649999999999764e+00 1.215653999999999968e+01 1.071799999999999997e+01 2.356069999999999887e+00 1.447577000000000069e+01 1.235670999999999964e+01 3.907999999999999918e+00 1.515747999999999962e+01 1.071800999999999959e+01 5.893810000000000215e+00 1.447577000000000069e+01 1.235671999999999926e+01 7.445700000000000429e+00 1.515748999999999924e+01 1.071803000000000061e+01 9.431509999999999394e+00 1.447575999999999929e+01 1.235670000000000002e+01 1.098342000000000063e+01 1.515747999999999962e+01 1.071801999999999921e+01 1.351210000000000022e+00 1.862595999999999918e+01 3.119569999999999954e+00 4.888919999999999710e+00 1.862593999999999994e+01 3.119590000000000085e+00 8.426629999999999399e+00 1.862595999999999918e+01 3.119590000000000085e+00 2.971159999999999801e+00 1.562500000000000000e+01 3.119580000000000020e+00 1.159848000000000035e+01 1.630671999999999855e+01 1.480860000000000065e+00 6.508880000000000443e+00 1.562500999999999962e+01 3.119569999999999954e+00 4.523060000000000080e+00 1.630673000000000172e+01 1.480860000000000065e+00 1.004659000000000013e+01 1.562500999999999962e+01 3.119569999999999954e+00 8.060769999999999769e+00 1.630673000000000172e+01 1.480860000000000065e+00 1.224982999999999933e+01 1.723255999999999943e+01 6.099429999999999907e+00 5.174380000000000202e+00 1.723255999999999943e+01 6.099420000000000286e+00 8.712109999999999133e+00 1.723256999999999906e+01 6.099429999999999907e+00 2.002520000000000078e+00 1.955179000000000045e+01 7.738150000000000084e+00 5.540250000000000341e+00 1.955179000000000045e+01 7.738150000000000084e+00 9.077959999999999141e+00 1.955178000000000083e+01 7.738139999999999574e+00 3.622489999999999988e+00 1.655084000000000088e+01 7.738139999999999574e+00 7.160230000000000317e+00 1.655085000000000051e+01 7.738129999999999953e+00 1.069792999999999950e+01 1.655084000000000088e+01 7.738139999999999574e+00 2.653869999999999951e+00 2.047762000000000171e+01 1.235671999999999926e+01 6.191589999999999705e+00 2.047762000000000171e+01 1.235671999999999926e+01 9.729290000000000660e+00 2.047763000000000133e+01 1.235670999999999964e+01 4.273839999999999861e+00 1.747668000000000177e+01 1.235670999999999964e+01 1.290113999999999983e+01 1.815840000000000032e+01 1.071799000000000035e+01 7.811560000000000059e+00 1.747668000000000177e+01 1.235670999999999964e+01 5.825719999999999565e+00 1.815840999999999994e+01 1.071799000000000035e+01 1.134928000000000026e+01 1.747668000000000177e+01 1.235670000000000002e+01 9.363440000000000651e+00 1.815840000000000032e+01 1.071799999999999997e+01 4.237600000000000255e-01 2.461679999999999868e+00 2.300209999999999866e+00 2.039070000000000160e+00 3.185929999999999929e+00 8.051899999999999613e-01 9.114489999999999981e+00 3.185919999999999863e+00 8.051800000000000068e-01 3.961479999999999890e+00 2.461669999999999803e+00 2.300219999999999931e+00 5.576789999999999914e+00 3.185939999999999994e+00 8.051800000000000068e-01 7.499189999999999579e+00 2.461669999999999803e+00 2.300209999999999866e+00 1.213400000000000034e-01 1.849699999999999955e-01 8.051700000000000523e-01 3.659060000000000201e+00 1.849500000000000033e-01 8.051599999999999868e-01 7.196780000000000399e+00 1.849699999999999955e-01 8.051700000000000523e-01 1.133946000000000076e+01 4.738360000000000127e+00 3.795360000000000067e+00 2.346260000000000012e+00 1.737470000000000070e+00 3.795399999999999885e+00 4.264020000000000366e+00 4.738369999999999749e+00 3.795360000000000067e+00 5.883989999999999831e+00 1.737449999999999939e+00 3.795409999999999950e+00 7.801730000000000054e+00 4.738369999999999749e+00 3.795350000000000001e+00 9.421709999999999141e+00 1.737449999999999939e+00 3.795399999999999885e+00 1.075110000000000010e+00 3.387519999999999865e+00 6.918779999999999930e+00 2.690399999999999903e+00 4.111769999999999925e+00 5.423739999999999561e+00 9.765829999999999345e+00 4.111760000000000304e+00 5.423750000000000071e+00 4.612820000000000142e+00 3.387529999999999930e+00 6.918779999999999930e+00 6.228110000000000035e+00 4.111769999999999925e+00 5.423739999999999561e+00 8.150539999999999452e+00 3.387519999999999865e+00 6.918779999999999930e+00 7.726800000000000335e-01 1.110789999999999944e+00 5.423729999999999940e+00 4.310389999999999944e+00 1.110810000000000075e+00 5.423739999999999561e+00 7.848119999999999763e+00 1.110800000000000010e+00 5.423729999999999940e+00 1.199080000000000013e+01 5.664209999999999745e+00 8.413919999999999177e+00 2.997609999999999886e+00 2.663300000000000001e+00 8.413980000000000459e+00 4.915370000000000239e+00 5.664220000000000255e+00 8.413930000000000575e+00 6.535319999999999574e+00 2.663310000000000066e+00 8.413970000000000837e+00 8.453070000000000306e+00 5.664209999999999745e+00 8.413930000000000575e+00 1.007304000000000066e+01 2.663300000000000001e+00 8.413980000000000459e+00 3.341740000000000155e+00 5.037620000000000431e+00 1.004232000000000014e+01 1.041717000000000048e+01 5.037609999999999921e+00 1.004232000000000014e+01 6.879470000000000418e+00 5.037600000000000300e+00 1.004231000000000051e+01 1.424020000000000064e+00 2.036630000000000162e+00 1.004228999999999949e+01 4.961719999999999686e+00 2.036630000000000162e+00 1.004231000000000051e+01 8.499439999999999884e+00 2.036649999999999849e+00 1.004229999999999912e+01 1.726429999999999909e+00 4.313349999999999795e+00 1.153734999999999999e+01 1.264212000000000025e+01 6.590040000000000120e+00 1.303250000000000064e+01 3.648930000000000007e+00 3.589129999999999932e+00 1.303252999999999950e+01 5.264160000000000394e+00 4.313360000000000305e+00 1.153734000000000037e+01 5.566690000000000360e+00 6.590040000000000120e+00 1.303248999999999924e+01 7.186670000000000336e+00 3.589139999999999997e+00 1.303253999999999913e+01 8.801869999999999195e+00 4.313360000000000305e+00 1.153734000000000037e+01 9.104409999999999670e+00 6.590049999999999741e+00 1.303250000000000064e+01 1.072438000000000002e+01 3.589139999999999997e+00 1.303253999999999913e+01 2.341540000000000177e+00 5.462620000000000253e+00 2.300260000000000193e+00 5.879240000000000244e+00 5.462629999999999875e+00 2.300269999999999815e+00 9.416959999999999553e+00 5.462620000000000253e+00 2.300260000000000193e+00 7.215599999999999792e-01 8.463530000000000442e+00 2.300209999999999866e+00 4.191300000000000026e-01 6.186819999999999986e+00 8.051700000000000523e-01 4.259280000000000399e+00 8.463540000000000063e+00 2.300209999999999866e+00 3.956850000000000200e+00 6.186829999999999607e+00 8.051700000000000523e-01 7.796990000000000087e+00 8.463530000000000442e+00 2.300199999999999800e+00 7.494570000000000398e+00 6.186829999999999607e+00 8.051599999999999868e-01 2.644070000000000142e+00 7.739320000000000199e+00 3.795409999999999950e+00 6.181770000000000209e+00 7.739320000000000199e+00 3.795409999999999950e+00 9.719490000000000407e+00 7.739320000000000199e+00 3.795409999999999950e+00 2.992859999999999854e+00 6.388460000000000250e+00 6.918829999999999814e+00 6.530590000000000117e+00 6.388469999999999871e+00 6.918840000000000323e+00 1.006831000000000031e+01 6.388469999999999871e+00 6.918829999999999814e+00 1.372880000000000100e+00 9.389379999999999171e+00 6.918779999999999930e+00 1.070470000000000033e+00 7.112669999999999604e+00 5.423739999999999561e+00 4.910610000000000142e+00 9.389390000000000569e+00 6.918770000000000309e+00 4.608189999999999564e+00 7.112669999999999604e+00 5.423729999999999940e+00 8.448330000000000339e+00 9.389379999999999171e+00 6.918779999999999930e+00 8.145899999999999253e+00 7.112669999999999604e+00 5.423729999999999940e+00 3.295389999999999819e+00 8.665169999999999817e+00 8.413970000000000837e+00 6.833109999999999573e+00 8.665160000000000196e+00 8.413970000000000837e+00 1.037082000000000015e+01 8.665160000000000196e+00 8.413970000000000837e+00 1.721799999999999997e+00 8.038510000000000488e+00 1.004228999999999949e+01 5.259529999999999816e+00 8.038489999999999469e+00 1.004231000000000051e+01 8.797219999999999374e+00 8.038500000000000867e+00 1.004228999999999949e+01 3.644210000000000171e+00 7.314300000000000246e+00 1.153740999999999950e+01 7.181910000000000238e+00 7.314300000000000246e+00 1.153740999999999950e+01 1.071963000000000044e+01 7.314309999999999867e+00 1.153739999999999988e+01 2.024230000000000196e+00 1.031522999999999968e+01 1.153734000000000037e+01 3.946730000000000071e+00 9.590999999999999304e+00 1.303253999999999913e+01 5.561950000000000394e+00 1.031522000000000006e+01 1.153734999999999999e+01 7.484449999999999825e+00 9.591010000000000701e+00 1.303253999999999913e+01 9.099660000000000082e+00 1.031522000000000006e+01 1.153734000000000037e+01 1.102216999999999913e+01 9.590989999999999682e+00 1.303255000000000052e+01 7.792349999999999888e+00 1.218867999999999974e+01 8.051599999999999868e-01 2.639320000000000110e+00 1.146449999999999925e+01 2.300269999999999815e+00 4.254640000000000200e+00 1.218868999999999936e+01 8.051700000000000523e-01 6.177039999999999864e+00 1.146448999999999963e+01 2.300269999999999815e+00 7.169100000000000472e-01 1.218867999999999974e+01 8.051700000000000523e-01 9.714760000000000062e+00 1.146448999999999963e+01 2.300260000000000193e+00 2.336860000000000159e+00 9.187789999999999679e+00 8.051899999999999613e-01 9.412300000000000111e+00 9.187780000000000058e+00 8.051700000000000523e-01 5.874570000000000292e+00 9.187799999999999301e+00 8.051700000000000523e-01 1.163724999999999987e+01 1.074023000000000039e+01 3.795350000000000001e+00 4.561810000000000365e+00 1.074023000000000039e+01 3.795350000000000001e+00 8.099529999999999674e+00 1.074024000000000001e+01 3.795350000000000001e+00 2.941850000000000076e+00 1.374118999999999957e+01 3.795409999999999950e+00 6.479569999999999830e+00 1.374118999999999957e+01 3.795409999999999950e+00 1.001727999999999952e+01 1.374118999999999957e+01 3.795409999999999950e+00 8.443680000000000518e+00 1.311452000000000062e+01 5.423739999999999561e+00 3.290649999999999853e+00 1.239033000000000051e+01 6.918829999999999814e+00 4.905960000000000321e+00 1.311452000000000062e+01 5.423739999999999561e+00 6.828380000000000116e+00 1.239031999999999911e+01 6.918840000000000323e+00 1.368249999999999966e+00 1.311452000000000062e+01 5.423729999999999940e+00 1.036608999999999980e+01 1.239031999999999911e+01 6.918829999999999814e+00 2.988199999999999967e+00 1.011363000000000056e+01 5.423750000000000071e+00 1.006363999999999947e+01 1.011364000000000019e+01 5.423750000000000071e+00 6.525920000000000165e+00 1.011364000000000019e+01 5.423739999999999561e+00 1.228857999999999961e+01 1.166607999999999912e+01 8.413919999999999177e+00 5.213140000000000107e+00 1.166607999999999912e+01 8.413930000000000575e+00 8.750870000000000815e+00 1.166605999999999987e+01 8.413919999999999177e+00 3.593179999999999819e+00 1.466702000000000083e+01 8.413980000000000459e+00 7.130899999999999572e+00 1.466702000000000083e+01 8.413959999999999440e+00 1.066860999999999926e+01 1.466702000000000083e+01 8.413970000000000837e+00 9.095019999999999882e+00 1.404035999999999973e+01 1.004228999999999949e+01 5.557310000000000194e+00 1.404036999999999935e+01 1.004229999999999912e+01 2.019589999999999996e+00 1.404035000000000011e+01 1.004228999999999949e+01 3.639540000000000219e+00 1.103946000000000005e+01 1.004232000000000014e+01 1.071495999999999960e+01 1.103946999999999967e+01 1.004232000000000014e+01 7.177249999999999908e+00 1.103946000000000005e+01 1.004231000000000051e+01 1.293992000000000075e+01 1.259191000000000038e+01 1.303248999999999924e+01 3.941990000000000105e+00 1.331616000000000000e+01 1.153739999999999988e+01 5.864480000000000359e+00 1.259191000000000038e+01 1.303250000000000064e+01 7.479709999999999859e+00 1.331616000000000000e+01 1.153739999999999988e+01 9.402200000000000557e+00 1.259190000000000076e+01 1.303248999999999924e+01 1.101742999999999917e+01 1.331616999999999962e+01 1.153739999999999988e+01 4.244510000000000005e+00 1.559285999999999994e+01 1.303253999999999913e+01 7.782230000000000203e+00 1.559285999999999994e+01 1.303253999999999913e+01 1.131995000000000040e+01 1.559285999999999994e+01 1.303253999999999913e+01 1.019330000000000069e+00 1.446540000000000070e+01 2.300209999999999866e+00 2.634650000000000158e+00 1.518965999999999994e+01 8.051800000000000068e-01 2.937110000000000110e+00 1.746634999999999849e+01 2.300269999999999815e+00 4.557059999999999889e+00 1.446541000000000032e+01 2.300209999999999866e+00 6.172360000000000291e+00 1.518964000000000070e+01 8.051899999999999613e-01 6.474820000000000242e+00 1.746634999999999849e+01 2.300269999999999815e+00 8.094780000000000086e+00 1.446540000000000070e+01 2.300199999999999800e+00 9.710079999999999600e+00 1.518965000000000032e+01 8.051800000000000068e-01 1.001254999999999917e+01 1.746633999999999887e+01 2.300279999999999880e+00 1.193504000000000076e+01 1.674209000000000103e+01 3.795360000000000067e+00 4.859600000000000364e+00 1.674209000000000103e+01 3.795350000000000001e+00 8.397320000000000562e+00 1.674210000000000065e+01 3.795360000000000067e+00 1.670679999999999943e+00 1.539123999999999981e+01 6.918790000000000440e+00 3.285989999999999966e+00 1.611549000000000120e+01 5.423739999999999561e+00 3.588449999999999918e+00 1.839218999999999937e+01 6.918840000000000323e+00 5.208389999999999631e+00 1.539124999999999943e+01 6.918779999999999930e+00 6.823710000000000164e+00 1.611550000000000082e+01 5.423750000000000071e+00 7.126159999999999606e+00 1.839217999999999975e+01 6.918829999999999814e+00 8.746119999999999450e+00 1.539123999999999981e+01 6.918770000000000309e+00 1.036142000000000074e+01 1.611549000000000120e+01 5.423739999999999561e+00 1.066388000000000069e+01 1.839219999999999899e+01 6.918840000000000323e+00 1.258636000000000088e+01 1.766792999999999836e+01 8.413919999999999177e+00 5.510930000000000106e+00 1.766792999999999836e+01 8.413909999999999556e+00 9.048659999999999926e+00 1.766792999999999836e+01 8.413919999999999177e+00 3.937320000000000153e+00 1.704132999999999853e+01 1.004232000000000014e+01 7.475030000000000285e+00 1.704132999999999853e+01 1.004232000000000014e+01 1.101276000000000010e+01 1.704134000000000171e+01 1.004232000000000014e+01 2.322010000000000129e+00 1.631709000000000032e+01 1.153734000000000037e+01 1.323770999999999987e+01 1.859376999999999924e+01 1.303248999999999924e+01 4.239779999999999660e+00 1.931803000000000026e+01 1.153740999999999950e+01 5.859740000000000393e+00 1.631707000000000107e+01 1.153734999999999999e+01 6.162270000000000358e+00 1.859377999999999886e+01 1.303248999999999924e+01 7.777490000000000236e+00 1.931803000000000026e+01 1.153739000000000026e+01 9.397460000000000591e+00 1.631708000000000069e+01 1.153734999999999999e+01 9.699989999999999668e+00 1.859376999999999924e+01 1.303248999999999924e+01 1.131522000000000006e+01 1.931803000000000026e+01 1.153739999999999988e+01