-2.556823895319999792e+03
-2.556797548019999795e+03
-2.556800039000000197e+03
-2.556831623409999793e+03
-2.556892499600000065e+03
-2.556982735720000164e+03
-2.557102403909999794e+03
-2.557251426039999842e+03
-2.557429591260000052e+03
-2.557636575389999962e+03
