-4.124709999999999765e-01 -5.429730000000000389e-01 2.613560999999999801e+00 4.125510000000000010e-01 5.448060000000000125e-01 -2.613291999999999948e+00 4.130610000000000115e-01 5.441049999999999498e-01 -2.613719000000000126e+00 -4.126349999999999740e-01 -5.430709999999999704e-01 2.613646999999999831e+00 4.128120000000000123e-01 5.447870000000000212e-01 -2.613105000000000011e+00 4.128979999999999873e-01 5.443400000000000460e-01 -2.613847999999999949e+00 -4.126819999999999933e-01 -5.432019999999999627e-01 2.613805999999999852e+00 4.123859999999999748e-01 5.448269999999999502e-01 -2.613376000000000143e+00 4.125559999999999783e-01 5.438190000000000524e-01 -2.613680000000000003e+00 4.125070000000000126e-01 5.446900000000000075e-01 -2.613357999999999848e+00 4.127080000000000193e-01 5.440779999999999506e-01 -2.613694999999999879e+00 4.124360000000000248e-01 5.452759999999999829e-01 -2.613310999999999940e+00 4.126360000000000028e-01 5.438429999999999653e-01 -2.613541999999999810e+00 4.126380000000000048e-01 5.451780000000000515e-01 -2.613459999999999894e+00 4.126810000000000200e-01 5.441380000000000106e-01 -2.613557000000000130e+00 -4.125480000000000258e-01 -5.435529999999999529e-01 2.613780999999999910e+00 -4.125670000000000170e-01 -5.429610000000000269e-01 2.613764000000000198e+00 -4.126360000000000028e-01 -5.430509999999999504e-01 2.613731000000000027e+00 -4.125409999999999910e-01 -5.435419999999999696e-01 2.613481000000000165e+00 4.123149999999999871e-01 5.447400000000000020e-01 -2.613449000000000133e+00 4.126440000000000108e-01 5.441300000000000026e-01 -2.613910000000000178e+00 -4.124419999999999753e-01 -5.433799999999999741e-01 2.613633000000000095e+00 4.127509999999999790e-01 5.445619999999999905e-01 -2.613503999999999827e+00 4.126850000000000240e-01 5.443710000000000493e-01 -2.613713999999999871e+00 -4.127069999999999905e-01 -5.432709999999999484e-01 2.613722000000000101e+00 4.123749999999999916e-01 5.447220000000000395e-01 -2.613427999999999862e+00 4.127339999999999898e-01 5.441169999999999618e-01 -2.613799999999999901e+00 -4.126630000000000020e-01 -5.439310000000000533e-01 2.613687999999999789e+00 -4.127370000000000205e-01 -5.436459999999999626e-01 2.613227000000000189e+00 4.124639999999999973e-01 5.446100000000000385e-01 -2.613510000000000222e+00 -4.126040000000000263e-01 -5.441340000000000066e-01 2.613652999999999782e+00 -4.124470000000000081e-01 -5.435870000000000424e-01 2.613471999999999795e+00 4.128049999999999775e-01 5.445539999999999825e-01 -2.613726999999999911e+00 -4.125829999999999775e-01 -5.438410000000000188e-01 2.613751999999999853e+00 -4.125770000000000270e-01 -5.436419999999999586e-01 2.613615999999999939e+00 4.127449999999999730e-01 5.441599999999999770e-01 -2.613545999999999925e+00 4.126529999999999920e-01 5.444550000000000223e-01 -2.613790999999999976e+00 4.126079999999999748e-01 5.450359999999999649e-01 -2.613894999999999857e+00 4.125690000000000190e-01 5.445309999999999873e-01 -2.614272000000000151e+00 -4.127959999999999963e-01 -5.438319999999999821e-01 2.613509000000000082e+00 -4.123140000000000138e-01 -5.436860000000000026e-01 2.613224000000000213e+00 -4.125559999999999783e-01 -5.434879999999999711e-01 2.613531000000000049e+00 -4.128279999999999728e-01 -5.435980000000000256e-01 2.613297000000000203e+00 -4.127359999999999918e-01 -5.439340000000000286e-01 2.613538999999999835e+00 -4.127839999999999843e-01 -5.439599999999999991e-01 2.613211000000000173e+00 -4.127569999999999850e-01 -5.436980000000000146e-01 2.613417000000000101e+00 -4.127959999999999963e-01 -5.437459999999999516e-01 2.613414000000000126e+00 4.127790000000000070e-01 5.443639999999999590e-01 -2.613910999999999873e+00 -4.126960000000000073e-01 -5.438269999999999493e-01 2.613433000000000117e+00 -4.127919999999999923e-01 -5.436490000000000489e-01 2.613175000000000026e+00 4.125659999999999883e-01 5.442909999999999693e-01 -2.613920999999999939e+00 -4.127830000000000110e-01 -5.438549999999999773e-01 2.613691000000000209e+00 -4.126319999999999988e-01 -5.437640000000000251e-01 2.613367999999999913e+00 4.125639999999999863e-01 5.448229999999999462e-01 -2.614021000000000150e+00 4.125499999999999723e-01 5.444320000000000270e-01 -2.613351000000000202e+00 4.121440000000000103e-01 5.444649999999999768e-01 -2.613322000000000145e+00 4.124450000000000061e-01 5.441949999999999843e-01 -2.613182000000000116e+00 -4.128029999999999755e-01 -5.432470000000000354e-01 2.613801000000000041e+00 4.126949999999999785e-01 5.443980000000000485e-01 -2.613894999999999857e+00 -4.124760000000000093e-01 -5.435360000000000191e-01 2.613989999999999814e+00 4.129419999999999757e-01 5.441049999999999498e-01 -2.613662999999999847e+00 -4.123589999999999756e-01 -5.432909999999999684e-01 2.613694000000000184e+00 4.127020000000000133e-01 5.444620000000000015e-01 -2.613685999999999954e+00 4.125349999999999850e-01 5.440270000000000383e-01 -2.613719000000000126e+00 4.127049999999999885e-01 5.441610000000000058e-01 -2.613385000000000069e+00 4.123839999999999728e-01 5.437809999999999588e-01 -2.613497999999999877e+00 4.127199999999999758e-01 5.444409999999999528e-01 -2.613576000000000121e+00 4.124570000000000181e-01 5.445259999999999545e-01 -2.613755999999999968e+00 4.126380000000000048e-01 5.443080000000000140e-01 -2.613904999999999923e+00 -4.125759999999999983e-01 -5.430920000000000192e-01 2.613682999999999979e+00 -4.128390000000000115e-01 -5.430949999999999944e-01 2.613462999999999870e+00 -4.128169999999999895e-01 -5.435389999999999944e-01 2.613491999999999926e+00 4.127779999999999783e-01 5.446739999999999915e-01 -2.613741000000000092e+00 4.123870000000000036e-01 5.444620000000000015e-01 -2.613821999999999868e+00 4.122600000000000153e-01 5.443550000000000333e-01 -2.613609999999999989e+00 -4.123910000000000076e-01 -5.433670000000000444e-01 2.613574999999999982e+00 4.125750000000000250e-01 5.443130000000000468e-01 -2.613710999999999895e+00 -4.131759999999999877e-01 -5.434569999999999679e-01 2.613665999999999823e+00 4.126540000000000208e-01 5.441939999999999555e-01 -2.614129000000000147e+00 -4.125219999999999998e-01 -5.432820000000000427e-01 2.613874000000000031e+00 4.130750000000000255e-01 5.444290000000000518e-01 -2.613968999999999987e+00 -4.127919999999999923e-01 -5.438150000000000484e-01 2.613709000000000060e+00 -4.128999999999999893e-01 -5.433249999999999469e-01 2.613557000000000130e+00 -4.127370000000000205e-01 -5.438669999999999893e-01 2.613412999999999986e+00 -4.125499999999999723e-01 -5.435400000000000231e-01 2.613697000000000159e+00 4.125480000000000258e-01 5.444609999999999728e-01 -2.613811999999999802e+00 -4.123339999999999783e-01 -5.436229999999999674e-01 2.613923000000000219e+00 4.123290000000000011e-01 5.444320000000000270e-01 -2.613655000000000062e+00 -4.125349999999999850e-01 -5.439190000000000413e-01 2.613887000000000072e+00 4.122299999999999853e-01 5.444980000000000375e-01 -2.613637999999999906e+00 4.124769999999999825e-01 5.445879999999999610e-01 -2.613513999999999893e+00 4.124220000000000108e-01 5.447100000000000275e-01 -2.613802999999999876e+00 4.121969999999999801e-01 5.443930000000000158e-01 -2.613785000000000025e+00 -4.126400000000000068e-01 -5.434830000000000494e-01 2.613529999999999909e+00 -4.128040000000000043e-01 -5.436220000000000496e-01 2.613249999999999851e+00 -4.126839999999999953e-01 -5.431939999999999547e-01 2.613383999999999929e+00 -4.125920000000000143e-01 -5.437670000000000003e-01 2.613815000000000222e+00 -4.126980000000000093e-01 -5.438399999999999901e-01 2.613652000000000086e+00 -4.121489999999999876e-01 -5.436959999999999571e-01 2.613792999999999811e+00 -4.130630000000000135e-01 -5.435600000000000431e-01 2.613138000000000183e+00 -4.129120000000000013e-01 -5.432810000000000139e-01 2.613213000000000008e+00 -4.125849999999999795e-01 -5.434870000000000534e-01 2.613401000000000085e+00 -4.126199999999999868e-01 -5.433900000000000396e-01 2.613456999999999919e+00 4.125329999999999830e-01 5.445799999999999530e-01 -2.613894999999999857e+00 -4.127040000000000153e-01 -5.431489999999999929e-01 2.613691000000000209e+00 4.122580000000000133e-01 5.442129999999999468e-01 -2.613564000000000220e+00 -4.125090000000000146e-01 -5.433019999999999516e-01 2.613729999999999887e+00 4.124140000000000028e-01 5.446600000000000330e-01 -2.613669999999999938e+00 8.799999999999999771e-05 -2.059999999999999928e-04 3.229999999999999907e-04 6.478140000000000009e-01 6.154610000000000358e-01 -1.214545999999999903e+00 6.476509999999999767e-01 6.157350000000000323e-01 -1.215087000000000028e+00 3.370000000000000057e-04 -1.649999999999999991e-04 3.440000000000000132e-04 6.479519999999999724e-01 6.156709999999999683e-01 -1.214801000000000020e+00 1.299999999999999886e-04 -4.659999999999999971e-04 -1.320000000000000101e-04 6.472930000000000073e-01 6.157639999999999780e-01 -1.213724000000000025e+00 6.473179999999999490e-01 6.162809999999999677e-01 -1.214056000000000024e+00 6.473339999999999650e-01 6.161039999999999850e-01 -1.214153000000000038e+00 -6.485800000000000454e-01 -6.139029999999999765e-01 1.213551999999999964e+00 -6.474670000000000147e-01 -6.142870000000000275e-01 1.213279999999999914e+00 -6.482059999999999489e-01 -6.139550000000000285e-01 1.213119000000000058e+00 -6.478040000000000465e-01 -6.142419999999999547e-01 1.213016000000000094e+00 -6.483729999999999771e-01 -6.141569999999999530e-01 1.213691999999999993e+00 -6.475210000000000132e-01 -6.138350000000000195e-01 1.212817000000000034e+00 1.749999999999999982e-04 -1.342000000000000094e-03 1.799000000000000035e-03 6.480749999999999567e-01 6.155420000000000336e-01 -1.214496000000000020e+00 6.479740000000000499e-01 6.160069999999999713e-01 -1.214604999999999935e+00 7.700000000000000139e-05 -1.479000000000000063e-03 1.516999999999999902e-03 6.481419999999999959e-01 6.156589999999999563e-01 -1.214758999999999922e+00 4.970000000000000459e-04 -1.670999999999999959e-03 1.307999999999999918e-03 6.476049999999999862e-01 6.154460000000000486e-01 -1.212622000000000089e+00 6.472200000000000175e-01 6.151280000000000081e-01 -1.212650000000000006e+00 6.470420000000000060e-01 6.156559999999999810e-01 -1.212498999999999993e+00 -6.488399999999999723e-01 -6.149999999999999911e-01 1.214256000000000002e+00 -6.480249999999999622e-01 -6.146770000000000289e-01 1.213735999999999926e+00 -6.486939999999999928e-01 -6.149759999999999671e-01 1.214094000000000007e+00 -6.479709999999999637e-01 -6.147590000000000554e-01 1.213721999999999968e+00 -6.481959999999999944e-01 -6.151060000000000416e-01 1.214072000000000040e+00 -6.476410000000000222e-01 -6.146610000000000129e-01 1.213924999999999921e+00 6.477199999999999624e-01 6.147139999999999826e-01 -1.214769999999999905e+00 6.480510000000000437e-01 6.149510000000000254e-01 -1.214930000000000065e+00 6.477850000000000552e-01 6.148860000000000436e-01 -1.214609999999999967e+00 6.472539999999999960e-01 6.150780000000000136e-01 -1.213448000000000082e+00 6.470820000000000460e-01 6.155159999999999521e-01 -1.213662999999999936e+00 6.477239999999999664e-01 6.151820000000000066e-01 -1.213526000000000105e+00 -1.340000000000000045e-04 -1.433999999999999945e-03 3.269999999999999795e-04 -6.486239999999999783e-01 -6.148770000000000069e-01 1.213316000000000061e+00 -6.476539999999999520e-01 -6.141799999999999482e-01 1.212180000000000035e+00 -6.700000000000000226e-05 -1.443999999999999971e-03 4.730000000000000046e-04 -6.479920000000000124e-01 -6.147280000000000522e-01 1.213688000000000100e+00 -6.475899999999999990e-01 -6.142410000000000370e-01 1.212591999999999892e+00 1.969999999999999909e-04 -1.526999999999999929e-03 6.750000000000000357e-04 -6.484450000000000491e-01 -6.148099999999999676e-01 1.213584999999999914e+00 -6.481820000000000359e-01 -6.143110000000000515e-01 1.212256000000000000e+00 7.889999999999999878e-04 -5.300000000000000078e-05 6.600000000000000506e-05 6.449999999999999570e-04 -3.840000000000000097e-04 -4.339999999999999782e-04 9.330000000000000186e-04 -2.799999999999999958e-05 -1.840000000000000001e-04 6.780000000000000002e-04 -4.399999999999999886e-05 7.910000000000000364e-04 6.476899999999999880e-01 6.148230000000000084e-01 -1.213163999999999909e+00 2.930000000000000204e-04 1.779999999999999898e-04 7.579999999999999932e-04 6.480289999999999662e-01 6.146310000000000384e-01 -1.213157000000000041e+00 -8.200000000000000095e-05 2.090000000000000115e-04 1.105000000000000079e-03 6.471689999999999943e-01 6.145850000000000479e-01 -1.213101999999999903e+00 -6.482259999999999689e-01 -6.143600000000000172e-01 1.213278000000000079e+00 -6.475710000000000077e-01 -6.141100000000000447e-01 1.213243000000000071e+00 -6.481259999999999799e-01 -6.142900000000000027e-01 1.213753000000000082e+00 1.136999999999999990e-03 -4.679999999999999915e-04 -4.169999999999999987e-04 6.089999999999999494e-04 -4.270000000000000249e-04 -2.449999999999999921e-04 2.759999999999999867e-04 -9.380000000000000317e-04 -1.920000000000000049e-04 4.029999999999999837e-04 4.029999999999999837e-04 -5.039999999999999992e-04 6.474990000000000467e-01 6.151130000000000209e-01 -1.214253999999999944e+00 6.340000000000000149e-04 5.450000000000000200e-04 -4.500000000000000283e-05 6.476669999999999927e-01 6.148890000000000189e-01 -1.213513999999999982e+00 -3.060000000000000111e-04 6.930000000000000396e-04 -3.869999999999999742e-04 6.478650000000000242e-01 6.151699999999999946e-01 -1.213937000000000044e+00 -6.478110000000000257e-01 -6.143349999999999644e-01 1.212711000000000094e+00 -6.483179999999999499e-01 -6.141849999999999810e-01 1.212696999999999914e+00 -6.481639999999999624e-01 -6.145530000000000159e-01 1.212908000000000097e+00 6.474729999999999652e-01 6.143929999999999669e-01 -1.213773999999999909e+00 6.475370000000000292e-01 6.151959999999999651e-01 -1.214252000000000109e+00 6.472989999999999577e-01 6.147960000000000091e-01 -1.213924999999999921e+00 3.190000000000000019e-04 -8.559999999999999901e-04 -5.010000000000000347e-04 9.210000000000000521e-04 -8.930000000000000221e-04 -3.840000000000000097e-04 7.709999999999999840e-04 -1.459000000000000010e-03 -1.930000000000000021e-04 1.520000000000000084e-04 -6.930000000000000396e-04 -1.050000000000000044e-04 -6.479810000000000292e-01 -6.144669999999999854e-01 1.213009999999999922e+00 5.000000000000000409e-06 -3.910000000000000172e-04 -4.409999999999999858e-04 -6.481289999999999552e-01 -6.151100000000000456e-01 1.213343000000000060e+00 -3.000000000000000076e-06 -2.460000000000000164e-04 -1.410000000000000120e-04 -6.482170000000000432e-01 -6.148409999999999709e-01 1.213181999999999983e+00 6.472909999999999497e-01 6.146049999999999569e-01 -1.213278999999999996e+00 8.850000000000000444e-04 -1.559000000000000056e-03 -3.000000000000000076e-06 6.469570000000000043e-01 6.141079999999999872e-01 -1.213324999999999987e+00 5.760000000000000146e-04 -1.322000000000000041e-03 5.789999999999999791e-04 6.475039999999999685e-01 6.144290000000000029e-01 -1.213686999999999960e+00 3.460000000000000076e-04 -9.590000000000000000e-04 5.360000000000000181e-04 6.482419999999999849e-01 6.147049999999999459e-01 -1.213464000000000098e+00 6.481160000000000254e-01 6.148869999999999614e-01 -1.213368000000000002e+00 6.482959999999999834e-01 6.144789999999999974e-01 -1.213097000000000092e+00 -6.482550000000000257e-01 -6.159369999999999568e-01 1.214768999999999988e+00 -6.477169999999999872e-01 -6.155450000000000088e-01 1.214709999999999956e+00 -6.482520000000000504e-01 -6.157859999999999445e-01 1.214950999999999892e+00 -6.481289999999999552e-01 -6.154490000000000238e-01 1.214209000000000094e+00 -6.481249999999999512e-01 -6.153440000000000021e-01 1.214180000000000037e+00 -6.480470000000000397e-01 -6.155329999999999968e-01 1.213999999999999968e+00 6.474180000000000490e-01 6.144509999999999694e-01 -1.213970999999999911e+00 1.018000000000000025e-03 -5.649999999999999641e-04 -4.989999999999999861e-04 6.479660000000000419e-01 6.144760000000000222e-01 -1.213325999999999905e+00 7.600000000000000418e-05 -7.299999999999999632e-04 -4.240000000000000062e-04 6.475710000000000077e-01 6.145869999999999944e-01 -1.213708999999999927e+00 3.499999999999999964e-04 -2.790000000000000054e-04 -7.900000000000000121e-04 6.480069999999999997e-01 6.151510000000000034e-01 -1.213796000000000097e+00 6.479810000000000292e-01 6.147829999999999684e-01 -1.214312999999999976e+00 6.481529999999999792e-01 6.148029999999999884e-01 -1.213729000000000058e+00 -6.480080000000000284e-01 -6.152889999999999748e-01 1.213696000000000108e+00 -6.480280000000000484e-01 -6.153640000000000221e-01 1.213424000000000058e+00 -6.490730000000000111e-01 -6.150449999999999529e-01 1.213443999999999967e+00 -6.477349999999999497e-01 -6.148280000000000411e-01 1.212809000000000026e+00 -6.481019999999999559e-01 -6.147369999999999779e-01 1.212992000000000070e+00 -6.475579999999999670e-01 -6.145570000000000199e-01 1.213200000000000056e+00 6.470369999999999733e-01 6.148120000000000251e-01 -1.214779999999999971e+00 6.470500000000000140e-01 6.147660000000000347e-01 -1.214889000000000108e+00 6.475370000000000292e-01 6.153579999999999606e-01 -1.214482000000000061e+00 6.485290000000000221e-01 6.155340000000000256e-01 -1.215060000000000029e+00 6.483950000000000546e-01 6.148799999999999821e-01 -1.214825000000000044e+00 6.477070000000000327e-01 6.153199999999999781e-01 -1.215146000000000059e+00 -6.478469999999999507e-01 -6.151900000000000146e-01 1.213894000000000029e+00 4.889999999999999599e-04 -2.429999999999999977e-04 -1.579000000000000108e-03 -6.485680000000000334e-01 -6.152680000000000371e-01 1.213635000000000019e+00 5.280000000000000405e-04 -7.020000000000000415e-04 -1.766999999999999908e-03 -6.482350000000000056e-01 -6.151769999999999738e-01 1.213796000000000097e+00 7.690000000000000438e-04 -3.809999999999999910e-04 -1.399999999999999986e-03 -6.479979999999999629e-01 -6.148169999999999469e-01 1.212463999999999986e+00 -6.476910000000000167e-01 -6.145300000000000207e-01 1.212822000000000067e+00 -6.477249999999999952e-01 -6.144910000000000094e-01 1.212539999999999951e+00 6.499999999999999431e-05 -1.425000000000000051e-03 8.360000000000000460e-04 6.477260000000000240e-01 6.151609999999999578e-01 -1.215305999999999997e+00 7.759999999999999971e-04 9.680000000000000019e-04 -5.439999999999999957e-04 3.499999999999999693e-05 -1.276000000000000007e-03 1.095000000000000053e-03 6.482940000000000369e-01 6.156920000000000170e-01 -1.215440999999999994e+00 1.353999999999999952e-03 8.429999999999999993e-04 -5.860000000000000408e-04 -6.000000000000000152e-06 -1.317000000000000028e-03 1.126999999999999964e-03 6.480879999999999974e-01 6.155289999999999928e-01 -1.215475000000000083e+00 5.320000000000000293e-04 1.513999999999999938e-03 -8.260000000000000198e-04 -6.481980000000000519e-01 -6.145230000000000414e-01 1.214612999999999943e+00 -6.481449999999999712e-01 -6.147219999999999906e-01 1.215475000000000083e+00 -6.488239999999999563e-01 -6.146679999999999922e-01 1.214757000000000087e+00 4.150000000000000043e-04 -1.330999999999999935e-03 1.353999999999999952e-03 6.482120000000000104e-01 6.151830000000000354e-01 -1.213708999999999927e+00 9.749999999999999552e-04 5.890000000000000053e-04 2.339999999999999958e-04 -5.800000000000000034e-05 -1.747000000000000072e-03 9.730000000000000151e-04 6.476429999999999687e-01 6.149829999999999464e-01 -1.214075999999999933e+00 4.910000000000000085e-04 6.759999999999999516e-04 9.799999999999999684e-05 -5.230000000000000274e-04 -1.663999999999999898e-03 1.219000000000000031e-03 6.481470000000000287e-01 6.146019999999999817e-01 -1.214198000000000111e+00 1.144999999999999967e-03 2.719999999999999979e-04 4.319999999999999838e-04 -6.481580000000000119e-01 -6.145739999999999537e-01 1.214927000000000090e+00 -6.487450000000000161e-01 -6.146679999999999922e-01 1.214652999999999983e+00 -6.486499999999999488e-01 -6.144830000000000014e-01 1.215216999999999992e+00 6.478000000000000425e-01 6.158040000000000180e-01 -1.215478000000000058e+00 6.479629999999999557e-01 6.155129999999999768e-01 -1.215308000000000055e+00 6.484910000000000396e-01 6.155829999999999913e-01 -1.215370000000000061e+00 2.460000000000000164e-04 -1.023999999999999954e-03 -5.130000000000000011e-04 -6.485100000000000309e-01 -6.142579999999999707e-01 1.213160000000000016e+00 5.069999999999999637e-04 3.319999999999999926e-04 -1.423999999999999919e-03 -1.459999999999999981e-04 -2.489999999999999809e-04 -7.060000000000000303e-04 -6.481829999999999536e-01 -6.146230000000000304e-01 1.213173000000000057e+00 1.005999999999999950e-03 2.339999999999999958e-04 -8.750000000000000182e-04 3.370000000000000057e-04 -5.349999999999999938e-04 -3.669999999999999760e-04 -6.482639999999999514e-01 -6.140179999999999527e-01 1.213295999999999930e+00 1.056999999999999997e-03 5.270000000000000162e-04 -1.090000000000000040e-03