9.057128149740512981e+02 -5.518707280506583146e+01 -4.392460616650224665e+02 -5.518707280506583146e+01 7.064035187839564287e+02 -4.279460775329609419e+02 -4.392460616650224665e+02 -4.279460775329609419e+02 6.795108366593523215e+02
9.057770352981342512e+02 -5.517864450725772940e+01 -4.392571837129143546e+02 -5.517864450725772940e+01 7.062471655965790660e+02 -4.280022661850149461e+02 -4.392571837129143546e+02 -4.280022661850149461e+02 6.796212308345643578e+02
9.053812027704879029e+02 -5.512728146885071823e+01 -4.392180995475885652e+02 -5.512728146885071823e+01 7.058083156979632804e+02 -4.281290707518415388e+02 -4.392180995475885652e+02 -4.281290707518415388e+02 6.795305026875713565e+02
9.056589730245243572e+02 -5.500831026116343025e+01 -4.390475835146788199e+02 -5.500831026116343025e+01 7.062222938550081608e+02 -4.282433485544749487e+02 -4.390475835146788199e+02 -4.282433485544749487e+02 6.806263797155139628e+02
9.052335257720305890e+02 -5.484564411346709534e+01 -4.388587565916291169e+02 -5.484564411346709534e+01 7.060766330375952293e+02 -4.284665001334999488e+02 -4.388587565916291169e+02 -4.284665001334999488e+02 6.810500752041493797e+02
9.051686278789082962e+02 -5.461518800967502330e+01 -4.386124519827429253e+02 -5.461518800967502330e+01 7.063628976937362722e+02 -4.287511617604500316e+02 -4.386124519827429253e+02 -4.287511617604500316e+02 6.823565935729980083e+02
9.046429665128689521e+02 -5.435731514889540961e+01 -4.383030673488891580e+02 -5.435731514889540961e+01 7.063780686297908460e+02 -4.290965897619890939e+02 -4.383030673488891580e+02 -4.290965897619890939e+02 6.833630314877300407e+02
9.041862188759665742e+02 -5.404578212540423010e+01 -4.379182081344674202e+02 -5.404578212540423010e+01 7.065491961274434516e+02 -4.294793501649957648e+02 -4.379182081344674202e+02 -4.294793501649957648e+02 6.848040886260996558e+02
9.036137721940551728e+02 -5.371309572702213586e+01 -4.374527677825707315e+02 -5.371309572702213586e+01 7.067613413410956582e+02 -4.298993603390994167e+02 -4.374527677825707315e+02 -4.298993603390994167e+02 6.864073822342382982e+02
9.029509278866332807e+02 -5.335902458871125020e+01 -4.369136541921867547e+02 -5.335902458871125020e+01 7.069809893924043536e+02 -4.303439943636620342e+02 -4.369136541921867547e+02 -4.303439943636620342e+02 6.882340587864397321e+02
