2.874530000000000030e+00 2.971999999999999975e+00 3.903140000000000054e+00 7.726699999999999680e-01 3.652499999999999858e+00 1.852810000000000068e+00 2.208000000000000185e+00 1.042990000000000084e+00 1.852850000000000108e+00 4.106889999999999930e+00 3.652489999999999792e+00 1.852810000000000068e+00 2.217319999999999958e+00 4.190319999999999823e+00 7.631459999999999688e+00 3.652680000000000149e+00 1.580829999999999957e+00 7.631499999999999950e+00 5.551549999999999763e+00 4.190319999999999823e+00 7.631470000000000198e+00 6.208770000000000344e+00 2.971989999999999910e+00 3.903129999999999988e+00 4.319209999999999994e+00 3.509830000000000005e+00 9.681760000000000588e+00 5.763869999999999827e+00 4.047640000000000349e+00 1.546041999999999916e+01 3.661989999999999856e+00 4.728139999999999787e+00 1.341009999999999991e+01 5.097330000000000361e+00 2.118630000000000013e+00 1.341014000000000017e+01 6.996209999999999596e+00 4.728150000000000297e+00 1.341010999999999953e+01 7.653430000000000177e+00 3.509819999999999940e+00 9.681770000000000209e+00 9.098079999999999501e+00 4.047640000000000349e+00 1.546040999999999954e+01 3.338099999999999845e+00 8.191029999999999589e+00 3.903129999999999988e+00 2.671580000000000066e+00 6.262019999999999698e+00 1.852850000000000108e+00 4.773450000000000415e+00 5.581520000000000259e+00 3.903129999999999988e+00 4.116229999999999833e+00 6.799850000000000172e+00 7.631509999999999572e+00 6.672340000000000160e+00 8.191019999999999968e+00 3.903129999999999988e+00 4.782770000000000188e+00 8.728849999999999554e+00 9.681779999999999831e+00 6.218110000000000248e+00 6.119340000000000224e+00 9.681779999999999831e+00 6.227430000000000021e+00 9.266679999999999140e+00 1.546040999999999954e+01 5.560900000000000176e+00 7.337679999999999758e+00 1.341013000000000055e+01 7.662749999999999950e+00 6.657169999999999810e+00 1.546043000000000056e+01 8.116989999999999483e+00 8.728839999999999932e+00 9.681770000000000209e+00 9.561650000000000205e+00 9.266679999999999140e+00 1.546040999999999954e+01 1.236229999999999940e+00 8.871520000000000294e+00 1.852819999999999911e+00 4.570450000000000124e+00 8.871529999999999916e+00 1.852829999999999977e+00 3.135159999999999947e+00 1.148104999999999976e+01 1.852859999999999951e+00 5.237000000000000099e+00 1.080056000000000083e+01 3.903129999999999988e+00 2.680899999999999839e+00 9.409349999999999881e+00 7.631450000000000067e+00 6.015109999999999957e+00 9.409349999999999881e+00 7.631459999999999688e+00 4.579799999999999649e+00 1.201889000000000074e+01 7.631490000000000329e+00 6.681680000000000064e+00 1.133838000000000079e+01 9.681779999999999831e+00 4.125560000000000116e+00 9.947169999999999845e+00 1.341010999999999953e+01 7.459780000000000300e+00 9.947169999999999845e+00 1.341009999999999991e+01 6.024469999999999992e+00 1.255669999999999931e+01 1.341014999999999979e+01 8.126319999999999766e+00 1.187618999999999936e+01 1.546041999999999916e+01 5.700580000000000425e+00 1.601958000000000126e+01 3.903129999999999988e+00 3.801680000000000170e+00 1.341005999999999965e+01 3.903119999999999923e+00 1.699810000000000043e+00 1.409055000000000035e+01 1.852819999999999911e+00 5.034029999999999561e+00 1.409055000000000035e+01 1.852810000000000068e+00 3.144470000000000098e+00 1.462837999999999994e+01 7.631470000000000198e+00 6.478690000000000282e+00 1.462838999999999956e+01 7.631459999999999688e+00 7.135909999999999975e+00 1.341005999999999965e+01 3.903119999999999923e+00 7.145249999999999879e+00 1.655741000000000085e+01 9.681779999999999831e+00 5.246349999999999625e+00 1.394787999999999961e+01 9.681770000000000209e+00 8.589890000000000470e+00 1.709523000000000081e+01 1.546041999999999916e+01 6.690999999999999837e+00 1.448569999999999958e+01 1.546040999999999954e+01 4.589140000000000441e+00 1.516619000000000028e+01 1.341010999999999953e+01 7.923339999999999606e+00 1.516619000000000028e+01 1.341010999999999953e+01 8.580569999999999808e+00 1.394786999999999999e+01 9.681779999999999831e+00 1.002523000000000053e+01 1.448569999999999958e+01 1.546040999999999954e+01 5.542239999999999611e+00 1.042999999999999927e+00 1.852850000000000108e+00 9.542980000000000018e+00 2.972010000000000041e+00 3.903129999999999988e+00 7.441119999999999735e+00 3.652499999999999858e+00 1.852810000000000068e+00 8.876450000000000173e+00 1.042999999999999927e+00 1.852859999999999951e+00 6.986880000000000202e+00 1.580819999999999892e+00 7.631490000000000329e+00 8.885780000000000456e+00 4.190330000000000332e+00 7.631459999999999688e+00 1.032110999999999912e+01 1.580829999999999957e+00 7.631490000000000329e+00 1.098765999999999998e+01 3.509819999999999940e+00 9.681770000000000209e+00 8.431559999999999278e+00 2.118640000000000079e+00 1.341014000000000017e+01 1.243229999999999968e+01 4.047649999999999970e+00 1.546040999999999954e+01 1.033042000000000016e+01 4.728130000000000166e+00 1.341009999999999991e+01 1.176579000000000086e+01 2.118650000000000144e+00 1.341014000000000017e+01 6.005799999999999805e+00 6.262030000000000207e+00 1.852859999999999951e+00 8.107649999999999579e+00 5.581529999999999880e+00 3.903129999999999988e+00 1.000656000000000034e+01 8.191029999999999589e+00 3.903129999999999988e+00 9.340030000000000499e+00 6.262019999999999698e+00 1.852850000000000108e+00 7.450459999999999638e+00 6.799850000000000172e+00 7.631499999999999950e+00 1.078467999999999982e+01 6.799850000000000172e+00 7.631490000000000329e+00 1.144187999999999938e+01 5.581520000000000259e+00 3.903129999999999988e+00 9.552310000000000301e+00 6.119349999999999845e+00 9.681770000000000209e+00 1.145121999999999929e+01 8.728839999999999932e+00 9.681760000000000588e+00 8.895120000000000360e+00 7.337670000000000137e+00 1.341013000000000055e+01 1.099696999999999925e+01 6.657169999999999810e+00 1.546041999999999916e+01 1.289588999999999963e+01 9.266669999999999519e+00 1.546040999999999954e+01 1.222935999999999979e+01 7.337679999999999758e+00 1.341014000000000017e+01 1.288654000000000011e+01 6.119349999999999845e+00 9.681770000000000209e+00 1.433120000000000083e+01 6.657169999999999810e+00 1.546040999999999954e+01 7.904679999999999929e+00 8.871520000000000294e+00 1.852810000000000068e+00 6.469380000000000130e+00 1.148104999999999976e+01 1.852850000000000108e+00 8.571239999999999526e+00 1.080056000000000083e+01 3.903140000000000054e+00 9.803599999999999426e+00 1.148104999999999976e+01 1.852859999999999951e+00 9.349339999999999762e+00 9.409349999999999881e+00 7.631459999999999688e+00 7.914039999999999964e+00 1.201887999999999934e+01 7.631499999999999950e+00 1.124826000000000015e+01 1.201887999999999934e+01 7.631499999999999950e+00 1.190545999999999971e+01 1.080054999999999943e+01 3.903129999999999988e+00 1.001590000000000025e+01 1.133836999999999939e+01 9.681779999999999831e+00 1.079401000000000010e+01 9.947169999999999845e+00 1.341010999999999953e+01 9.358700000000000685e+00 1.255671000000000070e+01 1.341013000000000055e+01 1.146054999999999957e+01 1.187620000000000076e+01 1.546041999999999916e+01 1.269290999999999947e+01 1.255669999999999931e+01 1.341014999999999979e+01 1.335011000000000081e+01 1.133838000000000079e+01 9.681770000000000209e+00 1.479477999999999938e+01 1.187621000000000038e+01 1.546041999999999916e+01 9.034810000000000230e+00 1.601959000000000088e+01 3.903129999999999988e+00 1.047011999999999965e+01 1.341006999999999927e+01 3.903119999999999923e+00 8.368259999999999366e+00 1.409055999999999997e+01 1.852819999999999911e+00 9.812920000000000087e+00 1.462837999999999994e+01 7.631459999999999688e+00 1.236903000000000041e+01 1.601959000000000088e+01 3.903140000000000054e+00 1.047946999999999917e+01 1.655740000000000123e+01 9.681770000000000209e+00 1.191479999999999961e+01 1.394788999999999923e+01 9.681770000000000209e+00 1.192412999999999990e+01 1.709524000000000044e+01 1.546041999999999916e+01 1.335945000000000071e+01 1.448570999999999920e+01 1.546041999999999916e+01 1.125756999999999941e+01 1.516619999999999990e+01 1.341010999999999953e+01 1.381367999999999974e+01 1.655740000000000123e+01 9.681770000000000209e+00 1.525835000000000008e+01 1.709523000000000081e+01 1.546041999999999916e+01 8.740999999999999881e-01 2.007490000000000219e+00 2.877969999999999917e+00 1.495349999999999957e+00 3.920589999999999797e+00 4.744550000000000267e+00 2.151899999999999924e+00 2.703899999999999970e+00 1.011540000000000106e+00 2.530100000000000127e-01 9.433999999999999331e-02 1.011540000000000106e+00 2.930689999999999795e+00 1.311109999999999998e+00 4.744609999999999772e+00 4.208330000000000126e+00 2.007509999999999906e+00 2.877969999999999917e+00 4.829579999999999984e+00 3.920609999999999928e+00 4.744550000000000267e+00 3.587239999999999984e+00 9.435000000000000331e-02 1.011530000000000040e+00 2.318770000000000220e+00 2.545319999999999805e+00 8.656599999999999184e+00 3.596550000000000136e+00 3.241730000000000000e+00 6.790189999999999948e+00 1.697680000000000078e+00 6.321600000000000552e-01 6.790169999999999817e+00 5.652989999999999959e+00 2.545329999999999870e+00 8.656610000000000582e+00 5.031889999999999752e+00 6.321700000000000097e-01 6.790180000000000327e+00 2.940020000000000078e+00 4.458420000000000272e+00 1.052321000000000062e+01 4.375350000000000072e+00 1.848940000000000028e+00 1.052325000000000088e+01 6.274250000000000327e+00 4.458420000000000272e+00 1.052318999999999960e+01 3.763430000000000053e+00 3.083149999999999835e+00 1.443525999999999954e+01 4.384680000000000355e+00 4.996240000000000236e+00 1.630185000000000173e+01 5.041220000000000034e+00 3.779539999999999900e+00 1.256882000000000055e+01 3.142329999999999846e+00 1.169999999999999929e+00 1.256882000000000055e+01 5.820020000000000415e+00 2.386740000000000084e+00 1.630189000000000021e+01 7.097660000000000302e+00 3.083149999999999835e+00 1.443524999999999991e+01 7.718910000000000160e+00 4.996240000000000236e+00 1.630185000000000173e+01 6.476539999999999964e+00 1.169980000000000020e+00 1.256880999999999915e+01 5.495449999999999946e+00 5.851200000000000401e+00 6.790180000000000327e+00 2.773039999999999949e+00 4.617020000000000124e+00 2.878029999999999866e+00 1.337690000000000046e+00 7.226539999999999964e+00 2.877959999999999852e+00 7.165799999999999947e-01 5.313380000000000436e+00 1.011519999999999975e+00 3.394270000000000120e+00 6.530129999999999768e+00 4.744600000000000151e+00 4.671909999999999563e+00 7.226539999999999964e+00 2.877959999999999852e+00 4.050799999999999734e+00 5.313380000000000436e+00 1.011519999999999975e+00 4.217690000000000161e+00 5.154849999999999710e+00 8.656679999999999708e+00 2.782340000000000035e+00 7.764359999999999928e+00 8.656599999999999184e+00 2.161239999999999828e+00 5.851200000000000401e+00 6.790180000000000327e+00 6.116559999999999775e+00 7.764359999999999928e+00 8.656610000000000582e+00 6.940120000000000289e+00 6.389020000000000366e+00 1.256880999999999915e+01 7.561219999999999608e+00 8.302189999999999515e+00 1.443524000000000029e+01 4.838919999999999888e+00 7.067960000000000242e+00 1.052325000000000088e+01 5.662349999999999994e+00 5.692669999999999675e+00 1.443530999999999942e+01 4.226989999999999803e+00 8.302189999999999515e+00 1.443524000000000029e+01 3.605890000000000040e+00 6.389020000000000366e+00 1.256882000000000055e+01 6.283599999999999852e+00 7.605780000000000207e+00 1.630189999999999984e+01 5.959039999999999893e+00 1.107023000000000046e+01 6.790169999999999817e+00 1.958930000000000060e+00 9.139630000000000365e+00 4.744559999999999889e+00 2.615460000000000118e+00 7.922939999999999650e+00 1.011549999999999949e+00 3.236610000000000209e+00 9.836059999999999803e+00 2.878029999999999866e+00 5.293160000000000309e+00 9.139620000000000744e+00 4.744550000000000267e+00 1.180150000000000032e+00 1.053240000000000087e+01 1.011530000000000040e+00 3.857829999999999870e+00 1.174915999999999983e+01 4.744600000000000151e+00 4.514380000000000059e+00 1.053240000000000087e+01 1.011519999999999975e+00 4.060120000000000395e+00 8.460750000000000881e+00 6.790189999999999948e+00 4.681269999999999598e+00 1.037387000000000015e+01 8.656670000000000087e+00 2.624810000000000088e+00 1.107024000000000008e+01 6.790180000000000327e+00 7.403699999999999726e+00 1.160805000000000042e+01 1.256882000000000055e+01 6.747169999999999668e+00 1.282479999999999976e+01 1.630189999999999984e+01 3.403579999999999828e+00 9.677459999999999951e+00 1.052319999999999922e+01 6.737809999999999633e+00 9.677459999999999951e+00 1.052318999999999960e+01 5.302509999999999835e+00 1.228697999999999979e+01 1.052325000000000088e+01 4.848259999999999792e+00 1.021527999999999992e+01 1.630183999999999855e+01 5.504789999999999850e+00 8.998580000000000467e+00 1.256882000000000055e+01 6.125939999999999941e+00 1.091169000000000011e+01 1.443532000000000082e+01 8.182470000000000354e+00 1.021527999999999992e+01 1.630183999999999855e+01 4.069469999999999921e+00 1.160804000000000080e+01 1.256882000000000055e+01 6.580140000000000100e+00 1.298338999999999999e+01 8.656610000000000582e+00 1.801250000000000018e+00 1.244556000000000040e+01 2.877969999999999917e+00 2.422499999999999876e+00 1.435867000000000004e+01 4.744559999999999889e+00 3.079029999999999934e+00 1.314194999999999958e+01 1.011530000000000040e+00 3.700180000000000025e+00 1.505508000000000024e+01 2.878029999999999866e+00 5.135469999999999757e+00 1.244556000000000040e+01 2.877959999999999852e+00 5.756730000000000125e+00 1.435866000000000042e+01 4.744559999999999889e+00 3.245909999999999851e+00 1.298338000000000036e+01 8.656620000000000203e+00 4.523699999999999832e+00 1.367977999999999916e+01 6.790180000000000327e+00 5.144849999999999923e+00 1.559290000000000020e+01 8.656670000000000087e+00 8.646050000000000679e+00 1.543430999999999997e+01 1.630185000000000173e+01 8.024789999999999424e+00 1.352121999999999957e+01 1.443524999999999991e+01 3.867150000000000087e+00 1.489649000000000001e+01 1.052319999999999922e+01 7.201380000000000337e+00 1.489649000000000001e+01 1.052318999999999960e+01 4.690559999999999619e+00 1.352120999999999995e+01 1.443524000000000029e+01 5.311829999999999607e+00 1.543430999999999997e+01 1.630182999999999893e+01 5.968359999999999665e+00 1.421761000000000053e+01 1.256882000000000055e+01 6.589509999999999756e+00 1.613072000000000017e+01 1.443530999999999942e+01 6.930780000000000385e+00 3.241709999999999869e+00 6.790189999999999948e+00 8.366120000000000445e+00 6.321600000000000552e-01 6.790169999999999817e+00 6.264929999999999666e+00 1.311099999999999932e+00 4.744609999999999772e+00 7.542570000000000441e+00 2.007509999999999906e+00 2.877969999999999917e+00 8.163809999999999789e+00 3.920599999999999863e+00 4.744559999999999889e+00 8.820330000000000226e+00 2.703910000000000036e+00 1.011540000000000106e+00 6.921459999999999724e+00 9.433999999999999331e-02 1.011540000000000106e+00 9.599140000000000228e+00 1.311109999999999998e+00 4.744600000000000151e+00 1.026501000000000019e+01 3.241709999999999869e+00 6.790189999999999948e+00 8.987220000000000653e+00 2.545329999999999870e+00 8.656610000000000582e+00 5.486119999999999663e+00 2.703899999999999970e+00 1.011540000000000106e+00 8.375439999999999330e+00 3.779549999999999965e+00 1.256882000000000055e+01 9.810769999999999769e+00 1.169999999999999929e+00 1.256882000000000055e+01 7.709579999999999878e+00 1.848929999999999962e+00 1.052325000000000088e+01 9.608480000000000132e+00 4.458429999999999893e+00 1.052318999999999960e+01 1.104382000000000019e+01 1.848919999999999897e+00 1.052323999999999948e+01 1.248847999999999914e+01 2.386760000000000215e+00 1.630189999999999984e+01 9.154239999999999711e+00 2.386760000000000215e+00 1.630189000000000021e+01 1.043187999999999960e+01 3.083140000000000214e+00 1.443524999999999991e+01 1.105312999999999946e+01 4.996249999999999858e+00 1.630185000000000173e+01 1.170964999999999989e+01 3.779539999999999900e+00 1.256883999999999979e+01 8.829689999999999372e+00 5.851210000000000022e+00 6.790180000000000327e+00 6.107260000000000133e+00 4.617020000000000124e+00 2.878039999999999932e+00 9.441480000000000317e+00 4.617020000000000124e+00 2.878029999999999866e+00 6.728489999999999860e+00 6.530140000000000278e+00 4.744600000000000151e+00 8.006130000000000635e+00 7.226519999999999833e+00 2.877969999999999917e+00 7.385030000000000427e+00 5.313369999999999926e+00 1.011540000000000106e+00 1.006270999999999916e+01 6.530129999999999768e+00 4.744600000000000151e+00 7.551929999999999588e+00 5.154840000000000089e+00 8.656679999999999708e+00 1.088613999999999926e+01 5.154840000000000089e+00 8.656679999999999708e+00 9.450789999999999580e+00 7.764359999999999928e+00 8.656599999999999184e+00 1.295204000000000022e+01 7.605789999999999829e+00 1.630189000000000021e+01 1.027434000000000047e+01 6.389029999999999987e+00 1.256882000000000055e+01 8.173159999999999314e+00 7.067949999999999733e+00 1.052326000000000050e+01 1.150737999999999950e+01 7.067960000000000242e+00 1.052325000000000088e+01 8.996589999999999421e+00 5.692669999999999675e+00 1.443532000000000082e+01 1.233080999999999960e+01 5.692680000000000184e+00 1.443530999999999942e+01 9.617820000000000036e+00 7.605780000000000207e+00 1.630189999999999984e+01 1.089544000000000068e+01 8.302179999999999893e+00 1.443524999999999991e+01 9.293260000000000076e+00 1.107022000000000084e+01 6.790180000000000327e+00 6.570829999999999949e+00 9.836059999999999803e+00 2.878039999999999932e+00 8.627380000000000493e+00 9.139630000000000365e+00 4.744550000000000267e+00 9.283910000000000551e+00 7.922920000000000407e+00 1.011540000000000106e+00 9.905049999999999244e+00 9.836059999999999803e+00 2.878029999999999866e+00 7.192070000000000185e+00 1.174916999999999945e+01 4.744600000000000151e+00 7.848589999999999733e+00 1.053240000000000087e+01 1.011530000000000040e+00 1.052628999999999948e+01 1.174916999999999945e+01 4.744620000000000282e+00 1.134971999999999959e+01 1.037387999999999977e+01 8.656689999999999330e+00 8.015489999999999782e+00 1.037387999999999977e+01 8.656670000000000087e+00 1.072856999999999950e+01 8.460750000000000881e+00 6.790180000000000327e+00 5.949679999999999858e+00 7.922930000000000028e+00 1.011540000000000106e+00 7.394350000000000200e+00 8.460760000000000502e+00 6.790189999999999948e+00 1.007203999999999944e+01 9.677450000000000330e+00 1.052318999999999960e+01 8.636720000000000397e+00 1.228698999999999941e+01 1.052323999999999948e+01 1.197095000000000020e+01 1.228697999999999979e+01 1.052326000000000050e+01 1.341562000000000054e+01 1.282482000000000077e+01 1.630188000000000059e+01 9.460150000000000503e+00 1.091169999999999973e+01 1.443533000000000044e+01 1.151669000000000054e+01 1.021527999999999992e+01 1.630183999999999855e+01 1.217323999999999984e+01 8.998580000000000467e+00 1.256883999999999979e+01 1.279437000000000069e+01 1.091169000000000011e+01 1.443533000000000044e+01 1.008137999999999934e+01 1.282480999999999938e+01 1.630188000000000059e+01 1.073793000000000042e+01 1.160805000000000042e+01 1.256880999999999915e+01 8.839019999999999655e+00 8.998580000000000467e+00 1.256883000000000017e+01 7.857920000000000016e+00 1.367979000000000056e+01 6.790180000000000327e+00 1.181328000000000067e+01 1.559290000000000020e+01 8.656679999999999708e+00 7.034399999999999764e+00 1.505508000000000024e+01 2.878029999999999866e+00 8.469699999999999562e+00 1.244555000000000078e+01 2.877959999999999852e+00 9.090949999999999420e+00 1.435866000000000042e+01 4.744550000000000267e+00 9.747469999999999857e+00 1.314195999999999920e+01 1.011540000000000106e+00 1.036862999999999957e+01 1.505508000000000024e+01 2.878029999999999866e+00 1.119214999999999982e+01 1.367977999999999916e+01 6.790180000000000327e+00 8.479050000000000864e+00 1.559290999999999983e+01 8.656679999999999708e+00 9.914350000000000662e+00 1.298338999999999999e+01 8.656620000000000203e+00 6.413260000000000183e+00 1.314194999999999958e+01 1.011549999999999949e+00 9.302569999999999339e+00 1.421759999999999913e+01 1.256883000000000017e+01 1.263679999999999914e+01 1.421759999999999913e+01 1.256882000000000055e+01 1.053561999999999976e+01 1.489648000000000039e+01 1.052321000000000062e+01 1.325794999999999924e+01 1.613072999999999979e+01 1.443532000000000082e+01 9.923719999999999430e+00 1.613072999999999979e+01 1.443530999999999942e+01 1.135903000000000063e+01 1.352120000000000033e+01 1.443524000000000029e+01 1.198025999999999947e+01 1.543430999999999997e+01 1.630183999999999855e+01