-2.521203702480000175e+03
-2.521504823050000141e+03
-2.521900423669999782e+03
-2.522391787309999927e+03
-2.522981413049999901e+03
-2.523672957119999865e+03
-2.524470887769999990e+03
-2.525380302569999913e+03
-2.526406857639999998e+03
-2.527556249400000070e+03
