1.890000000000000013e-01 3.704990000000000228e-01 1.533236000000000043e+00 -1.900979999999999892e-01 -3.707190000000000207e-01 -1.531482000000000010e+00 -1.889049999999999896e-01 -3.726789999999999825e-01 -1.532097999999999960e+00 -1.896130000000000038e-01 -3.702949999999999853e-01 -1.531641999999999948e+00 -1.895580000000000043e-01 -3.704350000000000143e-01 -1.531782999999999895e+00 -1.885600000000000054e-01 -3.725809999999999955e-01 -1.532202999999999982e+00 -1.898330000000000017e-01 -3.701720000000000010e-01 -1.531962000000000046e+00 1.880189999999999917e-01 3.707869999999999777e-01 1.533703999999999956e+00 1.880199999999999927e-01 3.704709999999999948e-01 1.534092999999999929e+00 1.882469999999999977e-01 3.709779999999999744e-01 1.533501000000000003e+00 -1.898410000000000097e-01 -3.706510000000000082e-01 -1.531539999999999901e+00 -1.892000000000000071e-01 -3.721820000000000128e-01 -1.532601000000000102e+00 -1.894710000000000005e-01 -3.705709999999999837e-01 -1.531668999999999947e+00 1.882149999999999934e-01 3.704459999999999975e-01 1.534013000000000071e+00 1.884979999999999989e-01 3.707710000000000172e-01 1.533558999999999894e+00 1.881069999999999964e-01 3.701659999999999950e-01 1.532902999999999905e+00 -1.887610000000000121e-01 -3.718060000000000254e-01 -1.532464999999999966e+00 1.879619999999999902e-01 3.709459999999999980e-01 1.533574999999999910e+00 -1.885010000000000019e-01 -3.718049999999999966e-01 -1.532788999999999957e+00 1.878549999999999942e-01 3.704439999999999955e-01 1.532705999999999902e+00 1.874039999999999873e-01 3.705229999999999912e-01 1.533042999999999934e+00 1.873440000000000105e-01 3.713620000000000254e-01 1.533463000000000021e+00 1.879859999999999864e-01 3.699589999999999823e-01 1.532987000000000100e+00 -1.886220000000000119e-01 -3.717539999999999734e-01 -1.532582000000000111e+00 1.884280000000000121e-01 3.705970000000000097e-01 1.533085999999999949e+00 1.878090000000000037e-01 3.705979999999999830e-01 1.532877000000000045e+00 1.878940000000000055e-01 3.701860000000000150e-01 1.533074999999999966e+00 -1.903330000000000022e-01 -3.714529999999999776e-01 -1.531597000000000097e+00 -1.891359999999999986e-01 -3.720780000000000198e-01 -1.531782999999999895e+00 -1.887890000000000124e-01 -3.705910000000000037e-01 -1.532893999999999979e+00 1.879879999999999884e-01 3.709620000000000140e-01 1.533708999999999989e+00 -1.901629999999999987e-01 -3.719890000000000141e-01 -1.531403000000000070e+00 -1.895809999999999995e-01 -3.721070000000000211e-01 -1.531870000000000065e+00 -1.881970000000000032e-01 -3.713339999999999974e-01 -1.532502000000000031e+00 1.879629999999999912e-01 3.713600000000000234e-01 1.533557000000000059e+00 -1.898559999999999970e-01 -3.718890000000000251e-01 -1.531584000000000056e+00 -1.895979999999999888e-01 -3.719899999999999873e-01 -1.531665999999999972e+00 -1.887449999999999961e-01 -3.708899999999999975e-01 -1.532634000000000052e+00 1.880729999999999902e-01 3.715680000000000094e-01 1.533317000000000041e+00 1.872550000000000048e-01 3.711329999999999907e-01 1.533050999999999942e+00 1.884560000000000124e-01 3.699029999999999818e-01 1.533465000000000078e+00 -1.902210000000000012e-01 -3.715180000000000149e-01 -1.531949999999999923e+00 -1.897099999999999898e-01 -3.711220000000000074e-01 -1.532000999999999946e+00 -1.896029999999999938e-01 -3.710559999999999969e-01 -1.531797000000000075e+00 -1.890550000000000008e-01 -3.715570000000000261e-01 -1.532116999999999951e+00 1.881859999999999922e-01 3.698500000000000121e-01 1.533411999999999997e+00 1.871849999999999903e-01 3.717349999999999821e-01 1.533214000000000077e+00 1.881819999999999882e-01 3.702779999999999960e-01 1.533827999999999969e+00 1.877790000000000015e-01 3.710879999999999734e-01 1.532636000000000109e+00 1.881960000000000022e-01 3.696610000000000174e-01 1.533595000000000041e+00 -1.903219999999999912e-01 -3.704549999999999788e-01 -1.532284999999999897e+00 -1.896789999999999865e-01 -3.706809999999999827e-01 -1.532407000000000075e+00 1.884119999999999961e-01 3.704970000000000208e-01 1.533503000000000061e+00 1.886120000000000019e-01 3.696900000000000186e-01 1.533590999999999926e+00 -1.890979999999999883e-01 -3.724339999999999873e-01 -1.532235999999999931e+00 1.881170000000000064e-01 3.704720000000000235e-01 1.533414999999999973e+00 -1.902749999999999997e-01 -3.706630000000000202e-01 -1.531396999999999897e+00 -1.892060000000000131e-01 -3.727440000000000198e-01 -1.532537000000000038e+00 -1.887359999999999871e-01 -3.731110000000000260e-01 -1.532261000000000095e+00 -1.898859999999999992e-01 -3.704689999999999928e-01 -1.531991000000000103e+00 -1.888499999999999901e-01 -3.733659999999999757e-01 -1.532084000000000001e+00 1.881929999999999992e-01 3.705280000000000240e-01 1.534073000000000020e+00 -1.890479999999999938e-01 -3.721769999999999801e-01 -1.532459999999999933e+00 1.880060000000000064e-01 3.708179999999999810e-01 1.533662000000000081e+00 -1.901599999999999957e-01 -3.700910000000000033e-01 -1.531762000000000068e+00 -1.889500000000000068e-01 -3.731450000000000045e-01 -1.532356999999999969e+00 -1.885270000000000001e-01 -3.718440000000000079e-01 -1.532594999999999930e+00 1.876539999999999875e-01 3.703460000000000085e-01 1.533622999999999958e+00 1.875479999999999925e-01 3.703790000000000138e-01 1.532882999999999996e+00 -1.891589999999999938e-01 -3.717019999999999769e-01 -1.532377000000000100e+00 -1.889399999999999968e-01 -3.715769999999999906e-01 -1.533174000000000037e+00 -1.889059999999999906e-01 -3.716920000000000224e-01 -1.532936999999999994e+00 1.880249999999999977e-01 3.706389999999999962e-01 1.533282999999999952e+00 1.878330000000000000e-01 3.705600000000000005e-01 1.533538999999999985e+00 1.874580000000000135e-01 3.705749999999999877e-01 1.533087000000000089e+00 -1.889339999999999908e-01 -3.716389999999999971e-01 -1.532343000000000011e+00 1.879319999999999879e-01 3.703580000000000205e-01 1.533285999999999927e+00 1.871160000000000045e-01 3.707719999999999905e-01 1.533044999999999991e+00 -1.892840000000000078e-01 -3.714109999999999912e-01 -1.532226000000000088e+00 1.877050000000000107e-01 3.706479999999999775e-01 1.533617000000000008e+00 1.876539999999999875e-01 3.704500000000000015e-01 1.533490000000000020e+00 -1.900499999999999967e-01 -3.719450000000000256e-01 -1.531411999999999995e+00 -1.890350000000000086e-01 -3.708370000000000277e-01 -1.532323000000000102e+00 1.874869999999999870e-01 3.710990000000000122e-01 1.533501000000000003e+00 -1.891420000000000046e-01 -3.706470000000000042e-01 -1.533103000000000105e+00 -1.899520000000000097e-01 -3.725729999999999875e-01 -1.531547999999999909e+00 -1.889659999999999951e-01 -3.702110000000000123e-01 -1.532575999999999938e+00 -1.891019999999999923e-01 -3.708119999999999750e-01 -1.532181999999999933e+00 1.875000000000000000e-01 3.709549999999999792e-01 1.533755999999999897e+00 1.875910000000000077e-01 3.715899999999999759e-01 1.533803000000000027e+00 -1.899869999999999892e-01 -3.717079999999999829e-01 -1.531514000000000042e+00 -1.886440000000000061e-01 -3.716459999999999764e-01 -1.532226000000000088e+00 1.876690000000000025e-01 3.712230000000000252e-01 1.533851000000000075e+00 -1.884369999999999934e-01 -3.711439999999999739e-01 -1.532626999999999962e+00 1.876980000000000037e-01 3.708150000000000057e-01 1.533894000000000091e+00 1.876180000000000070e-01 3.714120000000000199e-01 1.533452000000000037e+00 1.867489999999999983e-01 3.709040000000000115e-01 1.533031999999999950e+00 1.879969999999999974e-01 3.695840000000000236e-01 1.533393000000000006e+00 -1.901990000000000069e-01 -3.715180000000000149e-01 -1.531900000000000039e+00 -1.901889999999999969e-01 -3.710499999999999909e-01 -1.531649000000000038e+00 1.874800000000000078e-01 3.708219999999999850e-01 1.532820000000000071e+00 1.867360000000000131e-01 3.712179999999999924e-01 1.533692999999999973e+00 1.883519999999999917e-01 3.696710000000000274e-01 1.533925999999999901e+00 1.870930000000000093e-01 3.708679999999999755e-01 1.533277999999999919e+00 1.880509999999999959e-01 3.701070000000000193e-01 1.533457000000000070e+00 -1.894849999999999868e-01 -3.709259999999999780e-01 -1.532389999999999919e+00 1.876369999999999982e-01 3.710970000000000102e-01 1.533136999999999972e+00 1.868110000000000048e-01 3.713259999999999894e-01 1.532761999999999958e+00 6.089999999999999494e-04 -6.310000000000000504e-04 2.689999999999999791e-04 -3.932081000000000159e+00 -2.194958999999999882e+00 5.350200000000000067e+00 3.932395999999999781e+00 2.195628000000000135e+00 -5.352426999999999602e+00 3.932106000000000101e+00 2.196956000000000131e+00 -5.351512999999999742e+00 -3.931585999999999803e+00 -2.194968999999999948e+00 5.347968999999999973e+00 -1.969999999999999909e-04 -1.064999999999999974e-03 1.302999999999999905e-03 -3.932059999999999889e+00 -2.195218999999999809e+00 5.349491999999999692e+00 3.931208999999999953e+00 2.196836999999999929e+00 -5.351004999999999789e+00 7.979999999999999897e-04 -7.900000000000000121e-04 1.544999999999999932e-03 3.932284000000000113e+00 2.195875000000000021e+00 -5.350445999999999813e+00 3.931232000000000060e+00 2.196496999999999922e+00 -5.349718000000000195e+00 -4.500000000000000283e-05 -1.368000000000000075e-03 2.279000000000000210e-03 3.931087999999999916e+00 2.196785000000000210e+00 -5.349948000000000370e+00 -3.931535999999999920e+00 -2.195565000000000211e+00 5.350717999999999641e+00 -3.931681999999999899e+00 -2.194036000000000097e+00 5.349781000000000120e+00 -3.932393999999999945e+00 -2.196098999999999801e+00 5.351289999999999658e+00 9.049999999999999885e-04 -1.007999999999999998e-03 3.449999999999999833e-04 -3.931242999999999821e+00 -2.194792000000000076e+00 5.350267999999999802e+00 3.932021999999999906e+00 2.194738000000000078e+00 -5.351137999999999728e+00 3.931668000000000163e+00 2.196979999999999933e+00 -5.350938000000000194e+00 -3.931502000000000052e+00 -2.193829000000000029e+00 5.349078000000000443e+00 1.169999999999999979e-04 -9.499999999999999981e-04 8.170000000000000179e-04 -3.931843999999999895e+00 -2.194866999999999901e+00 5.350329000000000335e+00 3.931435000000000013e+00 2.197065999999999963e+00 -5.350735000000000241e+00 3.931239000000000150e+00 2.196921000000000124e+00 -5.349757999999999569e+00 1.005999999999999950e-03 1.330000000000000073e-04 -1.371999999999999956e-03 4.220000000000000118e-04 -1.745000000000000023e-03 1.185999999999999988e-03 3.932064000000000004e+00 2.196445000000000203e+00 -5.352047999999999917e+00 -3.931480999999999781e+00 -2.194332000000000171e+00 5.347820999999999714e+00 -8.000000000000000654e-05 -1.461999999999999975e-03 1.592000000000000099e-03 3.931468999999999880e+00 2.196534999999999904e+00 -5.350929999999999964e+00 7.619999999999999820e-04 -1.369999999999999961e-04 -5.969999999999999829e-04 6.130000000000000466e-04 -2.020000000000000094e-03 4.749999999999999990e-04 3.931645000000000056e+00 2.196896999999999878e+00 -5.349868999999999986e+00 -1.769999999999999926e-04 -2.360999999999999818e-03 9.709999999999999664e-04 3.931080000000000130e+00 2.195660000000000167e+00 -5.349874999999999936e+00 3.200000000000000262e-04 -2.245000000000000034e-03 2.141999999999999807e-03 -3.931979000000000113e+00 -2.196091000000000015e+00 5.348715999999999582e+00 1.152000000000000029e-03 -3.750000000000000078e-04 -3.600000000000000227e-04 1.038000000000000077e-03 -2.528999999999999998e-03 1.979999999999999989e-03 3.932138000000000133e+00 2.195656000000000052e+00 -5.351318000000000019e+00 -3.932120999999999977e+00 -2.194814000000000043e+00 5.349634000000000000e+00 3.930997000000000074e+00 2.196343999999999852e+00 -5.350137000000000143e+00 -3.931811000000000167e+00 -2.194389000000000145e+00 5.349560999999999567e+00 3.932498999999999967e+00 2.195520000000000138e+00 -5.352165000000000283e+00 5.910000000000000539e-04 -5.490000000000000088e-04 2.910000000000000260e-04 -3.932732000000000117e+00 -2.194347000000000047e+00 5.349374000000000073e+00 3.932151999999999870e+00 2.195921999999999930e+00 -5.351051000000000002e+00 -3.931626000000000065e+00 -2.195015999999999856e+00 5.349327999999999861e+00 3.931351999999999958e+00 2.196544999999999970e+00 -5.350699999999999790e+00 3.932249000000000105e+00 2.195742000000000083e+00 -5.351054000000000421e+00 7.529999999999999801e-04 -4.889999999999999599e-04 -1.337000000000000081e-03 3.932071999999999790e+00 2.195876999999999857e+00 -5.351236000000000104e+00 3.931461999999999790e+00 2.196921000000000124e+00 -5.349827000000000332e+00 -3.931538999999999895e+00 -2.194838999999999984e+00 5.349281999999999648e+00 -3.931855999999999796e+00 -2.195409000000000166e+00 5.349651999999999852e+00 -3.932433000000000067e+00 -2.195387999999999895e+00 5.349846000000000323e+00 -3.931757000000000168e+00 -2.194739999999999913e+00 5.349744000000000277e+00 -3.931811999999999863e+00 -2.195200999999999958e+00 5.350793999999999606e+00 3.931928999999999785e+00 2.194920000000000204e+00 -5.350494999999999557e+00 9.550000000000000112e-04 -2.380000000000000117e-04 4.670000000000000214e-04 -3.932466999999999935e+00 -2.194869000000000181e+00 5.350252000000000230e+00 3.931883000000000017e+00 2.196645999999999876e+00 -5.350215000000000387e+00 3.260000000000000094e-04 -8.610000000000000032e-04 4.300000000000000165e-05 4.380000000000000213e-04 -1.111000000000000008e-03 1.140000000000000063e-04 -3.931837999999999944e+00 -2.195028999999999897e+00 5.349397999999999875e+00 3.932441999999999993e+00 2.195857000000000170e+00 -5.352019000000000304e+00 1.244000000000000097e-03 2.759999999999999867e-04 -9.309999999999999699e-04 -3.089999999999999756e-04 -1.374999999999999920e-03 1.141000000000000087e-03 -3.932520999999999933e+00 -2.194875999999999827e+00 5.349059999999999704e+00 3.780000000000000265e-04 -5.439999999999999957e-04 -1.689999999999999879e-04 3.932015999999999956e+00 2.196070999999999884e+00 -5.351198000000000121e+00 1.134999999999999941e-03 9.210000000000000521e-04 -4.569999999999999952e-04 -3.932552999999999965e+00 -2.194577000000000222e+00 5.350560999999999900e+00 -3.499999999999999964e-04 -1.458000000000000095e-03 1.837000000000000091e-03 -3.931973000000000162e+00 -2.194036999999999793e+00 5.350700999999999929e+00 -3.932587999999999973e+00 -2.194112000000000062e+00 5.351510000000000211e+00 5.069999999999999637e-04 -1.245000000000000013e-03 6.989999999999999686e-04 -3.931794000000000011e+00 -2.195005000000000095e+00 5.350069999999999659e+00 3.932479999999999976e+00 2.196790000000000020e+00 -5.351532999999999873e+00 1.196000000000000014e-03 6.380000000000000037e-04 -1.368999999999999991e-03 3.932821999999999818e+00 2.196076999999999835e+00 -5.351384000000000363e+00 3.931824000000000208e+00 2.196708000000000105e+00 -5.350006999999999735e+00 -3.931449999999999889e+00 -2.194771999999999945e+00 5.347995000000000054e+00 5.410000000000000312e-04 -7.140000000000000079e-04 6.750000000000000357e-04 -3.931709999999999816e+00 -2.195282000000000178e+00 5.349663999999999753e+00 3.933609999999999829e+00 2.195583000000000062e+00 -5.352509999999999657e+00 3.931942999999999966e+00 2.197283000000000097e+00 -5.351093999999999795e+00 -3.931254000000000026e+00 -2.194856999999999836e+00 5.348745000000000083e+00 3.933194999999999997e+00 2.195956999999999937e+00 -5.351506999999999792e+00 6.440000000000000412e-04 -1.255999999999999955e-03 1.626000000000000058e-03 3.932729999999999837e+00 2.195915999999999979e+00 -5.351772999999999669e+00 3.932541000000000064e+00 2.194577999999999918e+00 -5.351067999999999714e+00 3.931748999999999938e+00 2.196928999999999910e+00 -5.350846999999999909e+00 -3.931452000000000169e+00 -2.194377999999999940e+00 5.349795000000000300e+00 -3.931573999999999902e+00 -2.196193000000000062e+00 5.351150999999999769e+00 -3.931462999999999930e+00 -2.193664000000000058e+00 5.349753999999999898e+00 -3.930817999999999923e+00 -2.194176000000000126e+00 5.348161000000000165e+00 -3.931719000000000186e+00 -2.194386999999999865e+00 5.348430999999999713e+00 -1.200000000000000030e-05 -7.150000000000000322e-04 6.430000000000000169e-04 -3.931347999999999843e+00 -2.194891999999999843e+00 5.349647000000000041e+00 3.933028999999999886e+00 2.195352999999999888e+00 -5.352141999999999733e+00 3.931951999999999892e+00 2.196757999999999988e+00 -5.350196000000000396e+00 1.276000000000000007e-03 1.990000000000000124e-04 -1.670999999999999959e-03 1.819000000000000087e-03 1.069999999999999988e-04 -1.752000000000000085e-03 -3.932138999999999829e+00 -2.195197999999999983e+00 5.348088999999999871e+00 8.700000000000000051e-04 -1.126000000000000048e-03 2.390000000000000089e-04 3.932259000000000171e+00 2.197003000000000039e+00 -5.351453000000000237e+00 -3.931325999999999876e+00 -2.194500000000000117e+00 5.347690000000000055e+00 1.082000000000000062e-03 -1.459999999999999981e-04 -1.105999999999999995e-03 1.801000000000000083e-03 -2.699999999999999899e-05 -1.521999999999999915e-03 6.250000000000000130e-04 -1.585000000000000037e-03 8.399999999999999535e-05 -3.931095000000000006e+00 -2.195723000000000091e+00 5.349117999999999817e+00 3.932042000000000037e+00 2.195117000000000207e+00 -5.350025999999999726e+00 -3.931842000000000059e+00 -2.195692999999999895e+00 5.348803000000000196e+00 -3.931102999999999792e+00 -2.195924999999999905e+00 5.348487999999999687e+00 1.069999999999999988e-03 -2.280000000000000126e-04 -7.730000000000000326e-04 1.765000000000000076e-03 -7.079999999999999705e-04 -6.329999999999999906e-04 -3.931817000000000117e+00 -2.194837000000000149e+00 5.348747000000000362e+00 6.470000000000000057e-04 -2.086999999999999880e-03 1.549999999999999946e-03 3.932304999999999939e+00 2.196159999999999890e+00 -5.350724999999999731e+00 1.088999999999999907e-03 -4.789999999999999879e-04 -5.550000000000000462e-04 -3.931786999999999921e+00 -2.194980000000000153e+00 5.348866000000000120e+00 3.933323000000000125e+00 2.195758999999999794e+00 -5.351971999999999952e+00 1.824000000000000100e-03 -1.056000000000000081e-03 -8.130000000000000291e-04 -3.931709999999999816e+00 -2.195094000000000101e+00 5.348101999999999911e+00 3.932383999999999880e+00 2.196035999999999877e+00 -5.350924000000000014e+00 -3.930766999999999900e+00 -2.195301999999999865e+00 5.348233999999999710e+00 2.096000000000000207e-03 -9.370000000000000074e-04 -2.273999999999999980e-03 1.038999999999999993e-03 -9.829999999999999329e-04 -7.230000000000000098e-04 3.932717999999999936e+00 2.195412000000000141e+00 -5.351002000000000258e+00 3.932840999999999809e+00 2.195797999999999917e+00 -5.351179000000000130e+00 3.932135000000000158e+00 2.195504999999999818e+00 -5.350535999999999959e+00 -3.931912000000000074e+00 -2.195555000000000145e+00 5.349639999999999951e+00 -3.931688999999999989e+00 -2.194830000000000059e+00 5.349695999999999785e+00 -3.930924000000000085e+00 -2.194596999999999909e+00 5.349063000000000123e+00 -3.930762000000000089e+00 -2.195679999999999854e+00 5.349273000000000167e+00 1.083999999999999894e-03 -2.110000000000000059e-04 -9.799999999999999684e-05 -3.931785000000000085e+00 -2.195284000000000013e+00 5.349961999999999662e+00 3.932951999999999781e+00 2.195265000000000022e+00 -5.351137999999999728e+00 1.783999999999999996e-03 -2.420000000000000005e-04 -4.029999999999999837e-04 -3.931575000000000042e+00 -2.195050000000000168e+00 5.349395000000000344e+00 3.931700000000000195e+00 2.196461999999999914e+00 -5.349736000000000047e+00 3.932281999999999833e+00 2.195084000000000035e+00 -5.350121999999999822e+00 3.932386999999999855e+00 2.196032000000000206e+00 -5.350469000000000364e+00 2.337999999999999801e-03 7.290000000000000473e-04 -2.113999999999999994e-03 1.075999999999999917e-03 1.740000000000000010e-04 -1.005000000000000034e-03 9.600000000000000243e-05 -1.101999999999999898e-03 6.040000000000000447e-04 -3.931995999999999825e+00 -2.195044000000000217e+00 5.349269999999999747e+00 3.933377999999999819e+00 2.195527999999999924e+00 -5.351916000000000118e+00 1.711999999999999980e-03 1.959999999999999937e-04 -1.595999999999999979e-03 3.932923000000000169e+00 2.196069000000000049e+00 -5.351183999999999941e+00 2.239999999999999804e-03 3.060000000000000111e-04 -1.106999999999999911e-03 9.950000000000000077e-04 -8.050000000000000515e-04 -2.790000000000000054e-04 3.932463999999999960e+00 2.196305999999999869e+00 -5.351911999999999558e+00 3.932446000000000108e+00 2.197703000000000184e+00 -5.352013999999999605e+00 3.932717999999999936e+00 2.197184000000000026e+00 -5.351490000000000080e+00 -3.932675000000000143e+00 -2.193566999999999823e+00 5.350927999999999685e+00 1.889999999999999970e-03 4.459999999999999989e-04 -2.337000000000000102e-03 1.054999999999999948e-03 8.769999999999999584e-04 -1.459999999999999926e-03 -6.099999999999999872e-05 -5.950000000000000427e-04 1.281000000000000021e-03 -3.932242000000000015e+00 -2.194682999999999939e+00 5.349840000000000373e+00