2.434849999999999959e+00 3.045259999999999856e+00 3.069789999999999797e+00 5.912199999999999678e-01 3.753919999999999924e+00 1.455519999999999925e+00 1.999970000000000026e+00 1.067970000000000086e+00 1.455540000000000056e+00 5.793809999999999683e+00 3.045259999999999856e+00 3.069780000000000175e+00 3.950210000000000221e+00 3.753919999999999924e+00 1.455519999999999925e+00 5.358950000000000102e+00 1.067960000000000020e+00 1.455559999999999965e+00 9.152779999999999916e+00 3.045259999999999856e+00 3.069780000000000175e+00 7.309179999999999566e+00 3.753909999999999858e+00 1.455519999999999925e+00 8.717919999999999447e+00 1.067960000000000020e+00 1.455540000000000056e+00 1.026110000000000078e+00 5.731239999999999668e+00 3.069789999999999797e+00 2.976360000000000117e+00 8.417199999999999349e+00 3.069780000000000175e+00 2.541500000000000092e+00 6.439899999999999736e+00 1.455549999999999899e+00 4.385080000000000311e+00 5.731239999999999668e+00 3.069789999999999797e+00 6.335329999999999906e+00 8.417199999999999349e+00 3.069789999999999797e+00 5.900459999999999816e+00 6.439899999999999736e+00 1.455540000000000056e+00 7.744060000000000166e+00 5.731239999999999668e+00 3.069789999999999797e+00 9.694319999999999382e+00 8.417210000000000747e+00 3.069789999999999797e+00 9.259449999999999292e+00 6.439890000000000114e+00 1.455549999999999899e+00 1.308559999999999945e+00 4.288020000000000387e+00 5.998680000000000234e+00 2.717299999999999827e+00 1.602070000000000105e+00 5.998700000000000365e+00 4.667539999999999800e+00 4.288020000000000387e+00 5.998680000000000234e+00 6.076270000000000060e+00 1.602070000000000105e+00 5.998689999999999856e+00 8.026510000000000034e+00 4.288020000000000387e+00 5.998680000000000234e+00 9.435240000000000293e+00 1.602060000000000040e+00 5.998700000000000365e+00 3.258840000000000181e+00 6.974009999999999820e+00 5.998689999999999856e+00 6.617820000000000036e+00 6.974000000000000199e+00 5.998700000000000365e+00 9.976779999999999760e+00 6.974000000000000199e+00 5.998700000000000365e+00 3.152179999999999982e+00 3.579369999999999941e+00 7.612930000000000419e+00 6.511149999999999771e+00 3.579380000000000006e+00 7.612930000000000419e+00 9.870120000000000005e+00 3.579369999999999941e+00 7.612940000000000040e+00 1.743449999999999944e+00 6.265340000000000131e+00 7.612930000000000419e+00 3.693709999999999827e+00 8.951320000000000832e+00 7.612930000000000419e+00 5.102439999999999642e+00 6.265349999999999753e+00 7.612940000000000040e+00 7.052679999999999616e+00 8.951309999999999434e+00 7.612919999999999909e+00 8.461410000000000764e+00 6.265349999999999753e+00 7.612930000000000419e+00 1.041164999999999985e+01 8.951299999999999812e+00 7.612919999999999909e+00 3.869510000000000005e+00 4.113470000000000404e+00 1.215606999999999971e+01 2.025910000000000100e+00 4.822129999999999583e+00 1.054181999999999952e+01 3.434639999999999915e+00 2.136169999999999902e+00 1.054184000000000054e+01 7.228500000000000369e+00 4.113470000000000404e+00 1.215606999999999971e+01 5.384890000000000398e+00 4.822129999999999583e+00 1.054181999999999952e+01 6.793619999999999770e+00 2.136179999999999968e+00 1.054184000000000054e+01 1.058746999999999971e+01 4.113480000000000025e+00 1.215606999999999971e+01 8.743850000000000122e+00 4.822119999999999962e+00 1.054182999999999915e+01 1.015259000000000000e+01 2.136169999999999902e+00 1.054184000000000054e+01 2.460789999999999811e+00 6.799450000000000216e+00 1.215609000000000073e+01 4.411039999999999850e+00 9.485419999999999519e+00 1.215607999999999933e+01 3.976170000000000204e+00 7.508119999999999905e+00 1.054184000000000054e+01 5.819770000000000110e+00 6.799450000000000216e+00 1.215607999999999933e+01 7.770010000000000083e+00 9.485419999999999519e+00 1.215607999999999933e+01 7.335149999999999615e+00 7.508119999999999905e+00 1.054185000000000016e+01 9.178750000000000853e+00 6.799450000000000216e+00 1.215607999999999933e+01 1.112898999999999994e+01 9.485429999999999140e+00 1.215607999999999933e+01 1.069411000000000023e+01 7.508119999999999905e+00 1.054185000000000016e+01 2.109179999999999833e+00 1.647512000000000043e+01 3.069780000000000175e+00 5.468160000000000132e+00 1.647511000000000081e+01 3.069780000000000175e+00 8.827109999999999346e+00 1.647512000000000043e+01 3.069780000000000175e+00 1.132759999999999989e+00 9.125849999999999795e+00 1.455529999999999990e+00 4.491740000000000066e+00 9.125859999999999417e+00 1.455529999999999990e+00 7.850710000000000299e+00 9.125859999999999417e+00 1.455519999999999925e+00 1.567649999999999988e+00 1.110318000000000005e+01 3.069789999999999797e+00 3.517910000000000093e+00 1.378914999999999935e+01 3.069789999999999797e+00 1.674290000000000056e+00 1.449779000000000018e+01 1.455529999999999990e+00 3.083029999999999937e+00 1.181184000000000012e+01 1.455540000000000056e+00 4.926619999999999777e+00 1.110318999999999967e+01 3.069770000000000110e+00 6.876879999999999882e+00 1.378913999999999973e+01 3.069789999999999797e+00 5.033249999999999780e+00 1.449779000000000018e+01 1.455519999999999925e+00 6.442000000000000171e+00 1.181183000000000050e+01 1.455559999999999965e+00 8.285579999999999501e+00 1.110318000000000005e+01 3.069780000000000175e+00 1.023583999999999961e+01 1.378914999999999935e+01 3.069789999999999797e+00 8.392229999999999634e+00 1.449779000000000018e+01 1.455529999999999990e+00 9.800979999999999137e+00 1.181184000000000012e+01 1.455549999999999899e+00 1.850090000000000012e+00 9.659959999999999880e+00 5.998669999999999725e+00 5.209069999999999645e+00 9.659959999999999880e+00 5.998669999999999725e+00 8.568049999999999500e+00 9.659969999999999501e+00 5.998669999999999725e+00 2.391630000000000145e+00 1.503189000000000064e+01 5.998680000000000234e+00 3.800370000000000026e+00 1.234594000000000058e+01 5.998700000000000365e+00 5.750589999999999868e+00 1.503190000000000026e+01 5.998669999999999725e+00 7.159329999999999750e+00 1.234592999999999918e+01 5.998700000000000365e+00 9.109579999999999345e+00 1.503189000000000064e+01 5.998669999999999725e+00 1.051830999999999960e+01 1.234595000000000020e+01 5.998700000000000365e+00 2.826509999999999856e+00 1.700921999999999912e+01 7.612940000000000040e+00 6.185489999999999711e+00 1.700922999999999874e+01 7.612930000000000419e+00 9.544460000000000832e+00 1.700921999999999912e+01 7.612930000000000419e+00 2.284990000000000077e+00 1.163729999999999976e+01 7.612940000000000040e+00 4.235240000000000116e+00 1.432324999999999982e+01 7.612930000000000419e+00 5.643950000000000244e+00 1.163729000000000013e+01 7.612930000000000419e+00 7.594199999999999839e+00 1.432324999999999982e+01 7.612919999999999909e+00 9.002940000000000609e+00 1.163729000000000013e+01 7.612930000000000419e+00 1.095317999999999969e+01 1.432324999999999982e+01 7.612930000000000419e+00 3.543849999999999945e+00 1.754334000000000060e+01 1.215606999999999971e+01 6.902820000000000178e+00 1.754332000000000136e+01 1.215607999999999933e+01 1.026181000000000054e+01 1.754334000000000060e+01 1.215609000000000073e+01 2.567439999999999944e+00 1.019406000000000034e+01 1.054180999999999990e+01 5.926400000000000112e+00 1.019406000000000034e+01 1.054180999999999990e+01 9.285389999999999588e+00 1.019406000000000034e+01 1.054180999999999990e+01 3.002330000000000165e+00 1.217140000000000022e+01 1.215606999999999971e+01 4.952569999999999695e+00 1.485735999999999990e+01 1.215606999999999971e+01 3.108969999999999789e+00 1.556601000000000035e+01 1.054180999999999990e+01 4.517699999999999605e+00 1.288003999999999927e+01 1.054185000000000016e+01 6.361290000000000333e+00 1.217140999999999984e+01 1.215607999999999933e+01 8.311550000000000438e+00 1.485735999999999990e+01 1.215607999999999933e+01 6.467939999999999579e+00 1.556600000000000072e+01 1.054181999999999952e+01 7.876680000000000348e+00 1.288003999999999927e+01 1.054185000000000016e+01 9.720269999999999300e+00 1.217140000000000022e+01 1.215607999999999933e+01 1.167051999999999978e+01 1.485735999999999990e+01 1.215606999999999971e+01 9.826909999999999812e+00 1.556601000000000035e+01 1.054180999999999990e+01 1.123564000000000007e+01 1.288005000000000067e+01 1.054184000000000054e+01 5.378500000000000503e-01 2.056630000000000180e+00 2.262649999999999828e+00 1.102425000000000033e+01 4.019680000000000142e+00 3.734690000000000065e+00 2.078770000000000007e+00 2.779510000000000147e+00 7.907399999999999984e-01 8.105349999999999611e+00 5.999550000000000161e+00 5.333870000000000111e+00 2.488140000000000018e+00 4.742589999999999861e+00 2.262700000000000156e+00 2.356059999999999821e+00 1.333720000000000017e+00 3.734729999999999883e+00 3.896840000000000082e+00 2.056620000000000115e+00 2.262640000000000207e+00 4.306289999999999729e+00 4.019680000000000142e+00 3.734680000000000000e+00 5.437750000000000306e+00 2.779520000000000213e+00 7.907300000000000439e-01 8.514670000000000627e+00 7.962659999999999627e+00 6.805790000000000006e+00 5.847109999999999808e+00 4.742589999999999861e+00 2.262710000000000221e+00 5.715019999999999989e+00 1.333730000000000082e+00 3.734739999999999949e+00 7.255810000000000315e+00 2.056630000000000180e+00 2.262640000000000207e+00 7.665269999999999584e+00 4.019669999999999632e+00 3.734680000000000000e+00 8.796730000000000160e+00 2.779510000000000147e+00 7.907300000000000439e-01 4.746369999999999756e+00 5.999550000000000161e+00 5.333879999999999733e+00 9.206089999999999662e+00 4.742589999999999861e+00 2.262710000000000221e+00 9.073999999999999844e+00 1.333730000000000082e+00 3.734729999999999883e+00 1.079390000000000072e+00 7.428560000000000052e+00 2.262659999999999894e+00 6.700700000000000545e-01 5.465440000000000076e+00 7.907199999999999784e-01 2.897590000000000110e+00 6.705669999999999575e+00 3.734729999999999883e+00 4.438369999999999926e+00 7.428560000000000052e+00 2.262659999999999894e+00 4.029029999999999667e+00 5.465440000000000076e+00 7.907199999999999784e-01 6.256560000000000343e+00 6.705669999999999575e+00 3.734719999999999818e+00 7.797340000000000160e+00 7.428550000000000431e+00 2.262649999999999828e+00 7.388010000000000410e+00 5.465440000000000076e+00 7.907300000000000439e-01 9.615529999999999688e+00 6.705680000000000085e+00 3.734719999999999818e+00 1.255209999999999937e+00 2.590720000000000134e+00 6.805790000000000006e+00 2.796100000000000030e+00 3.313619999999999788e+00 5.333890000000000242e+00 5.155700000000000394e+00 7.962659999999999627e+00 6.805799999999999628e+00 3.205470000000000041e+00 5.276699999999999946e+00 6.805850000000000399e+00 4.614169999999999661e+00 2.590720000000000134e+00 6.805799999999999628e+00 6.155079999999999885e+00 3.313619999999999788e+00 5.333870000000000111e+00 1.387389999999999901e+00 5.999539999999999651e+00 5.333870000000000111e+00 6.564449999999999896e+00 5.276709999999999567e+00 6.805839999999999890e+00 7.973150000000000404e+00 2.590730000000000199e+00 6.805799999999999628e+00 9.514049999999999230e+00 3.313610000000000166e+00 5.333890000000000242e+00 1.796729999999999938e+00 7.962659999999999627e+00 6.805790000000000006e+00 9.923420000000000130e+00 5.276709999999999567e+00 6.805850000000000399e+00 7.563810000000000144e+00 6.276100000000000012e-01 5.333879999999999733e+00 4.204850000000000421e+00 6.276000000000000467e-01 5.333870000000000111e+00 8.458799999999999653e-01 6.276000000000000467e-01 5.333870000000000111e+00 6.846470000000000056e+00 9.349999999999999978e-02 7.907300000000000439e-01 3.487499999999999822e+00 9.349999999999999978e-02 7.907199999999999784e-01 1.285399999999999876e-01 9.349999999999999978e-02 7.907300000000000439e-01 1.174159000000000042e+01 4.553779999999999717e+00 8.277820000000000178e+00 3.073389999999999844e+00 1.867839999999999945e+00 8.277879999999999683e+00 5.023640000000000327e+00 4.553779999999999717e+00 8.277829999999999799e+00 6.432360000000000078e+00 1.867839999999999945e+00 8.277879999999999683e+00 8.382609999999999673e+00 4.553770000000000095e+00 8.277829999999999799e+00 9.791339999999999932e+00 1.867830000000000101e+00 8.277870000000000061e+00 3.614920000000000133e+00 7.239779999999999660e+00 8.277870000000000061e+00 6.973910000000000053e+00 7.239760000000000417e+00 8.277870000000000061e+00 1.033286999999999978e+01 7.239779999999999660e+00 8.277879999999999683e+00 1.972539999999999960e+00 3.124830000000000219e+00 1.134895000000000032e+01 1.245893000000000050e+01 5.087880000000000180e+00 1.282099000000000011e+01 3.513440000000000119e+00 3.847729999999999873e+00 9.877029999999999532e+00 1.105020999999999987e+01 7.773869999999999614e+00 1.282100999999999935e+01 3.922810000000000130e+00 5.810819999999999652e+00 1.134900000000000020e+01 3.790739999999999998e+00 2.401940000000000186e+00 1.282103000000000037e+01 5.331509999999999749e+00 3.124839999999999840e+00 1.134894000000000069e+01 5.740969999999999906e+00 5.087889999999999802e+00 1.282098000000000049e+01 6.872419999999999973e+00 3.847729999999999873e+00 9.877039999999999154e+00 8.822689999999999699e+00 6.533649999999999736e+00 9.877029999999999532e+00 7.281780000000000364e+00 5.810800000000000409e+00 1.134900999999999982e+01 7.149700000000000166e+00 2.401940000000000186e+00 1.282103000000000037e+01 8.690490000000000492e+00 3.124839999999999840e+00 1.134895000000000032e+01 9.099959999999999383e+00 5.087900000000000311e+00 1.282098000000000049e+01 1.023138999999999932e+01 3.847729999999999873e+00 9.877029999999999532e+00 9.232010000000000716e+00 8.496769999999999712e+00 1.134895000000000032e+01 1.064076999999999984e+01 5.810800000000000409e+00 1.134900000000000020e+01 1.050868000000000002e+01 2.401940000000000186e+00 1.282102000000000075e+01 2.514060000000000183e+00 8.496760000000000090e+00 1.134894000000000069e+01 2.104729999999999990e+00 6.533640000000000114e+00 9.877029999999999532e+00 4.332259999999999778e+00 7.773889999999999745e+00 1.282102000000000075e+01 5.873039999999999594e+00 8.496779999999999333e+00 1.134895000000000032e+01 5.463720000000000354e+00 6.533660000000000245e+00 9.877019999999999911e+00 7.691230000000000011e+00 7.773880000000000123e+00 1.282102000000000075e+01 8.281159999999999854e+00 1.161720000000000086e+00 9.877010000000000289e+00 4.922180000000000000e+00 1.161720000000000086e+00 9.877019999999999911e+00 1.563209999999999988e+00 1.161720000000000086e+00 9.877029999999999532e+00 1.156577000000000055e+01 9.391610000000000014e+00 3.734690000000000065e+00 5.979280000000000150e+00 8.151450000000000529e+00 7.907300000000000439e-01 3.029659999999999798e+00 1.011452000000000062e+01 2.262690000000000090e+00 4.847819999999999574e+00 9.391619999999999635e+00 3.734680000000000000e+00 9.338260000000000005e+00 8.151450000000000529e+00 7.907300000000000439e-01 6.388639999999999652e+00 1.011452000000000062e+01 2.262700000000000156e+00 8.206810000000000827e+00 9.391610000000000014e+00 3.734690000000000065e+00 3.337629999999999875e+00 8.685549999999999216e+00 5.333890000000000242e+00 9.747609999999999886e+00 1.011453000000000024e+01 2.262690000000000090e+00 1.620929999999999982e+00 1.280048999999999992e+01 2.262649999999999828e+00 1.210731000000000002e+01 1.476354000000000077e+01 3.734690000000000065e+00 3.161830000000000140e+00 1.352338999999999913e+01 7.907300000000000439e-01 1.211600000000000010e+00 1.083738999999999919e+01 7.907300000000000439e-01 3.571210000000000218e+00 1.548645999999999923e+01 2.262690000000000090e+00 3.439109999999999889e+00 1.207760000000000034e+01 3.734729999999999883e+00 4.979899999999999771e+00 1.280048999999999992e+01 2.262659999999999894e+00 5.389359999999999928e+00 1.476355000000000040e+01 3.734690000000000065e+00 6.520800000000000374e+00 1.352338999999999913e+01 7.907300000000000439e-01 4.570560000000000400e+00 1.083736999999999995e+01 7.907199999999999784e-01 6.930180000000000007e+00 1.548645999999999923e+01 2.262700000000000156e+00 6.798090000000000188e+00 1.207760000000000034e+01 3.734719999999999818e+00 8.338860000000000383e+00 1.280048999999999992e+01 2.262659999999999894e+00 8.748329999999999274e+00 1.476355000000000040e+01 3.734690000000000065e+00 9.879789999999999850e+00 1.352337999999999951e+01 7.907300000000000439e-01 7.929540000000000255e+00 1.083738999999999919e+01 7.907199999999999784e-01 1.028913999999999973e+01 1.548645999999999923e+01 2.262700000000000156e+00 1.015704999999999991e+01 1.207760000000000034e+01 3.734729999999999883e+00 6.696620000000000239e+00 8.685560000000000613e+00 5.333890000000000242e+00 3.747009999999999952e+00 1.064863000000000071e+01 6.805839999999999890e+00 1.005559000000000047e+01 8.685560000000000613e+00 5.333890000000000242e+00 7.105970000000000120e+00 1.064864000000000033e+01 6.805860000000000021e+00 2.620299999999999851e+00 8.151460000000000150e+00 7.907399999999999984e-01 1.046494999999999997e+01 1.064864000000000033e+01 6.805860000000000021e+00 2.338270000000000071e+00 1.333459000000000039e+01 6.805790000000000006e+00 3.879169999999999785e+00 1.405747999999999998e+01 5.333879999999999733e+00 1.928930000000000033e+00 1.137148000000000003e+01 5.333879999999999733e+00 4.288540000000000241e+00 1.602057999999999893e+01 6.805839999999999890e+00 5.697239999999999860e+00 1.333460000000000001e+01 6.805790000000000006e+00 7.238150000000000084e+00 1.405747999999999998e+01 5.333890000000000242e+00 5.287919999999999732e+00 1.137148000000000003e+01 5.333879999999999733e+00 7.647499999999999964e+00 1.602058999999999855e+01 6.805850000000000399e+00 9.056210000000000093e+00 1.333460999999999963e+01 6.805790000000000006e+00 1.059712000000000032e+01 1.405747999999999998e+01 5.333890000000000242e+00 8.646879999999999455e+00 1.137148000000000003e+01 5.333870000000000111e+00 1.100648999999999944e+01 1.602057999999999893e+01 6.805839999999999890e+00 1.228311000000000064e+01 9.925729999999999720e+00 8.277829999999999799e+00 5.565170000000000172e+00 9.925720000000000098e+00 8.277839999999999421e+00 8.924139999999999517e+00 9.925710000000000477e+00 8.277820000000000178e+00 1.282465000000000011e+01 1.529766000000000048e+01 8.277829999999999799e+00 4.156450000000000422e+00 1.261172000000000004e+01 8.277870000000000061e+00 6.106690000000000396e+00 1.529767000000000010e+01 8.277839999999999421e+00 7.515419999999999767e+00 1.261171000000000042e+01 8.277870000000000061e+00 9.465680000000000760e+00 1.529766000000000048e+01 8.277829999999999799e+00 1.087439000000000000e+01 1.261170000000000080e+01 8.277870000000000061e+00 1.300043999999999933e+01 1.045982000000000056e+01 1.282097000000000087e+01 7.413960000000000328e+00 9.219659999999999300e+00 9.877019999999999911e+00 4.464349999999999596e+00 1.118275000000000041e+01 1.134899000000000058e+01 6.282499999999999751e+00 1.045983999999999980e+01 1.282098000000000049e+01 1.077294000000000018e+01 9.219659999999999300e+00 9.877019999999999911e+00 7.823319999999999830e+00 1.118275000000000041e+01 1.134900000000000020e+01 9.641479999999999606e+00 1.045982000000000056e+01 1.282097000000000087e+01 4.054979999999999585e+00 9.219659999999999300e+00 9.877029999999999532e+00 1.118229000000000006e+01 1.118274000000000079e+01 1.134899000000000058e+01 3.055600000000000094e+00 1.386871000000000009e+01 1.134894000000000069e+01 1.354199000000000019e+01 1.583175999999999917e+01 1.282098000000000049e+01 4.596519999999999939e+00 1.459159000000000006e+01 9.877019999999999911e+00 2.646259999999999835e+00 1.190558000000000050e+01 9.877029999999999532e+00 5.005869999999999820e+00 1.655469000000000079e+01 1.134899000000000058e+01 4.873780000000000001e+00 1.314581000000000088e+01 1.282103000000000037e+01 6.414589999999999570e+00 1.386870000000000047e+01 1.134894000000000069e+01 6.824049999999999727e+00 1.583177000000000056e+01 1.282098000000000049e+01 7.955479999999999663e+00 1.459159000000000006e+01 9.877029999999999532e+00 6.005250000000000199e+00 1.190559000000000012e+01 9.877019999999999911e+00 8.364860000000000184e+00 1.655469000000000079e+01 1.134899000000000058e+01 8.232770000000000366e+00 1.314583000000000013e+01 1.282100999999999935e+01 9.773540000000000560e+00 1.386871999999999971e+01 1.134894000000000069e+01 1.018300999999999945e+01 1.583177000000000056e+01 1.282098000000000049e+01 1.131445000000000078e+01 1.459159999999999968e+01 9.877039999999999154e+00 9.364219999999999544e+00 1.190559000000000012e+01 9.877029999999999532e+00 1.172382999999999953e+01 1.655469000000000079e+01 1.134899000000000058e+01 1.159174999999999933e+01 1.314582000000000050e+01 1.282100999999999935e+01