-2.316777236989999892e+03
-2.316542495990000134e+03
-2.316399569510000219e+03
-2.316352373889999853e+03
-2.316405760850000206e+03
-2.316565816970000014e+03
-2.316839520510000057e+03
-2.317234423200000037e+03
-2.317758471130000089e+03
-2.318419439650000186e+03
