-3.331529999999999769e-01 -1.167249999999999954e-01 2.636924000000000046e+00 3.315779999999999839e-01 1.164779999999999982e-01 -2.636125999999999969e+00 3.324989999999999890e-01 1.152040000000000008e-01 -2.637334000000000067e+00 -3.329900000000000082e-01 -1.167900000000000049e-01 2.636948999999999987e+00 3.319590000000000041e-01 1.165230000000000016e-01 -2.636324999999999807e+00 3.326830000000000065e-01 1.156110000000000054e-01 -2.637712000000000057e+00 -3.330310000000000215e-01 -1.166289999999999966e-01 2.636934000000000111e+00 3.320290000000000186e-01 1.166299999999999976e-01 -2.636341999999999963e+00 3.323019999999999863e-01 1.155690000000000051e-01 -2.637499000000000038e+00 -3.332229999999999914e-01 -1.160749999999999976e-01 2.636524999999999785e+00 -3.330850000000000199e-01 -1.168700000000000017e-01 2.637096999999999802e+00 3.325790000000000135e-01 1.167630000000000057e-01 -2.635981000000000130e+00 -3.328880000000000172e-01 -1.160100000000000020e-01 2.636635000000000062e+00 -3.325139999999999763e-01 -1.167440000000000005e-01 2.636922999999999906e+00 3.330520000000000147e-01 1.167419999999999985e-01 -2.636137000000000175e+00 -3.328920000000000212e-01 -1.167180000000000023e-01 2.636610000000000120e+00 -3.329090000000000105e-01 -1.169580000000000064e-01 2.636769999999999836e+00 3.326379999999999892e-01 1.170660000000000034e-01 -2.636280000000000179e+00 3.314980000000000149e-01 1.169789999999999996e-01 -2.635978000000000154e+00 3.333459999999999757e-01 1.148389999999999966e-01 -2.637623000000000051e+00 3.319550000000000001e-01 1.169639999999999985e-01 -2.636055999999999955e+00 3.329500000000000237e-01 1.157119999999999954e-01 -2.637160000000000171e+00 3.320029999999999926e-01 1.170899999999999996e-01 -2.636131999999999920e+00 3.328709999999999725e-01 1.153870000000000035e-01 -2.637345999999999968e+00 3.324690000000000145e-01 1.165169999999999956e-01 -2.635806000000000093e+00 3.326379999999999892e-01 1.174840000000000051e-01 -2.636076000000000086e+00 3.328999999999999737e-01 1.171920000000000045e-01 -2.636080999999999896e+00 -3.327950000000000075e-01 -1.165869999999999962e-01 2.637208999999999914e+00 -3.326950000000000185e-01 -1.166289999999999966e-01 2.637029000000000067e+00 -3.328679999999999972e-01 -1.165970000000000062e-01 2.636985000000000134e+00 -3.334619999999999806e-01 -1.158880000000000049e-01 2.636797000000000057e+00 -3.330799999999999872e-01 -1.168570000000000025e-01 2.637544999999999806e+00 -3.331990000000000229e-01 -1.160840000000000066e-01 2.636871000000000187e+00 -3.327919999999999767e-01 -1.169260000000000022e-01 2.637426000000000048e+00 -3.330710000000000059e-01 -1.166279999999999956e-01 2.637084000000000206e+00 -3.328929999999999945e-01 -1.168229999999999963e-01 2.637240999999999946e+00 -3.329690000000000150e-01 -1.164820000000000022e-01 2.637096999999999802e+00 3.316270000000000051e-01 1.164310000000000067e-01 -2.636031000000000013e+00 3.325400000000000023e-01 1.159570000000000045e-01 -2.637290000000000134e+00 -3.329420000000000157e-01 -1.167399999999999965e-01 2.637525000000000119e+00 3.315389999999999726e-01 1.170019999999999949e-01 -2.636026000000000202e+00 3.330859999999999932e-01 1.152090000000000058e-01 -2.637290000000000134e+00 -3.331580000000000097e-01 -1.168659999999999977e-01 2.637395999999999852e+00 3.319540000000000268e-01 1.171050000000000008e-01 -2.636317000000000021e+00 3.323160000000000003e-01 1.158789999999999959e-01 -2.637280000000000069e+00 -3.333059999999999912e-01 -1.163880000000000053e-01 2.636814000000000213e+00 -3.330759999999999832e-01 -1.165709999999999941e-01 2.637267000000000028e+00 3.329110000000000125e-01 1.164649999999999991e-01 -2.636117000000000044e+00 -3.331959999999999922e-01 -1.157389999999999947e-01 2.636765000000000025e+00 -3.325520000000000143e-01 -1.166169999999999984e-01 2.637068000000000190e+00 3.329799999999999982e-01 1.167350000000000054e-01 -2.635940999999999867e+00 -3.332289999999999974e-01 -1.158970000000000000e-01 2.636770999999999976e+00 -3.327309999999999990e-01 -1.172839999999999994e-01 2.637294999999999945e+00 3.328709999999999725e-01 1.167080000000000062e-01 -2.635958000000000023e+00 -3.330270000000000175e-01 -1.173209999999999947e-01 2.637480000000000047e+00 -3.330589999999999939e-01 -1.169079999999999980e-01 2.637389999999999901e+00 -3.329770000000000230e-01 -1.167279999999999984e-01 2.637319999999999887e+00 3.319750000000000201e-01 1.164010000000000045e-01 -2.637192999999999898e+00 3.323519999999999808e-01 1.156739999999999990e-01 -2.636903999999999915e+00 3.324340000000000073e-01 1.156780000000000030e-01 -2.636934000000000111e+00 -3.333070000000000199e-01 -1.164810000000000012e-01 2.636906000000000194e+00 -3.329289999999999750e-01 -1.168880000000000058e-01 2.636632000000000087e+00 3.321290000000000076e-01 1.176460000000000006e-01 -2.635809000000000069e+00 3.322240000000000193e-01 1.161579999999999974e-01 -2.636576999999999948e+00 -3.333749999999999769e-01 -1.164039999999999936e-01 2.637344000000000133e+00 -3.332300000000000262e-01 -1.163020000000000026e-01 2.636576999999999948e+00 3.326740000000000252e-01 1.172570000000000001e-01 -2.635737999999999914e+00 3.327470000000000150e-01 1.164339999999999958e-01 -2.636941000000000201e+00 -3.329710000000000170e-01 -1.166859999999999981e-01 2.637080000000000091e+00 -3.329599999999999782e-01 -1.170009999999999939e-01 2.636413000000000117e+00 3.327370000000000050e-01 1.169120000000000020e-01 -2.636003999999999792e+00 3.323329999999999895e-01 1.163639999999999952e-01 -2.636725999999999903e+00 3.320899999999999963e-01 1.163060000000000066e-01 -2.636648999999999798e+00 3.323610000000000175e-01 1.157640000000000058e-01 -2.636687999999999921e+00 3.320350000000000246e-01 1.158620000000000066e-01 -2.636397000000000101e+00 3.324699999999999878e-01 1.172939999999999955e-01 -2.635584000000000149e+00 3.325790000000000135e-01 1.162880000000000025e-01 -2.636892000000000014e+00 3.326850000000000085e-01 1.173710000000000031e-01 -2.635771000000000086e+00 3.328450000000000020e-01 1.164869999999999933e-01 -2.636724000000000068e+00 3.319750000000000201e-01 1.179690000000000044e-01 -2.635279999999999845e+00 3.326500000000000012e-01 1.157460000000000017e-01 -2.636521999999999810e+00 -3.329010000000000025e-01 -1.168430000000000024e-01 2.637465000000000170e+00 -3.328369999999999940e-01 -1.171039999999999998e-01 2.637647999999999993e+00 -3.330830000000000179e-01 -1.165080000000000005e-01 2.637443000000000204e+00 -3.332100000000000062e-01 -1.167500000000000066e-01 2.637431999999999999e+00 -3.329690000000000150e-01 -1.162630000000000052e-01 2.636543000000000081e+00 -3.330870000000000219e-01 -1.164329999999999948e-01 2.637556000000000012e+00 -3.328309999999999880e-01 -1.164189999999999947e-01 2.636690000000000200e+00 -3.335069999999999979e-01 -1.160980000000000067e-01 2.637509000000000103e+00 -3.326779999999999737e-01 -1.168600000000000055e-01 2.636741999999999919e+00 -3.331620000000000137e-01 -1.172129999999999977e-01 2.638056000000000179e+00 -3.326069999999999860e-01 -1.164649999999999991e-01 2.637236999999999831e+00 -3.328880000000000172e-01 -1.170419999999999933e-01 2.637513999999999914e+00 3.317809999999999926e-01 1.162019999999999997e-01 -2.636365000000000069e+00 3.327030000000000265e-01 1.163450000000000040e-01 -2.636963999999999864e+00 3.321109999999999896e-01 1.162490000000000051e-01 -2.636588000000000154e+00 -3.335119999999999751e-01 -1.165830000000000061e-01 2.637452999999999825e+00 -3.325790000000000135e-01 -1.171350000000000030e-01 2.636588000000000154e+00 3.323039999999999883e-01 1.168629999999999947e-01 -2.635629999999999917e+00 3.326830000000000065e-01 1.164909999999999973e-01 -2.636877000000000137e+00 -3.329679999999999862e-01 -1.168499999999999955e-01 2.637195000000000178e+00 -3.325910000000000255e-01 -1.163389999999999980e-01 2.636299999999999866e+00 3.325540000000000163e-01 1.174759999999999971e-01 -2.635619000000000156e+00 3.328119999999999967e-01 1.164010000000000045e-01 -2.636889000000000038e+00 -3.328280000000000127e-01 -1.166009999999999963e-01 2.637126999999999999e+00 -3.333269999999999844e-01 -1.166169999999999984e-01 2.636667000000000094e+00 3.325330000000000230e-01 1.173199999999999937e-01 -2.635625000000000107e+00 3.323990000000000000e-01 1.163129999999999997e-01 -2.636512999999999884e+00 6.170000000000000354e-04 -1.490000000000000005e-03 1.579999999999999916e-04 -3.528814999999999813e+00 -2.738658000000000037e+00 4.535485000000000433e+00 3.527747999999999884e+00 2.739300000000000068e+00 -4.537525999999999726e+00 3.527698000000000000e+00 2.738888999999999907e+00 -4.535336000000000034e+00 9.669999999999999776e-04 -7.110000000000000434e-04 -2.269999999999999882e-04 -3.527734000000000147e+00 -2.739104999999999901e+00 4.534785000000000288e+00 1.866000000000000037e-03 -1.897999999999999948e-03 2.149999999999999947e-04 -3.527339000000000002e+00 -2.738925000000000054e+00 4.535669999999999646e+00 3.528475999999999946e+00 2.739072000000000173e+00 -4.537676000000000265e+00 1.856000000000000011e-03 -1.299000000000000024e-03 1.139999999999999954e-03 2.258000000000000024e-03 -1.162999999999999971e-03 -6.170000000000000354e-04 -3.527039999999999953e+00 -2.739430000000000032e+00 4.534353000000000300e+00 1.441999999999999922e-03 -2.494999999999999822e-03 -2.339999999999999958e-04 -3.527616999999999781e+00 -2.738189000000000206e+00 4.535292000000000101e+00 3.526848999999999901e+00 2.739491000000000120e+00 -4.537581000000000309e+00 3.528389999999999915e+00 2.738773000000000124e+00 -4.535815999999999626e+00 4.110000000000000155e-04 -6.899999999999999667e-04 -3.480000000000000020e-04 -3.528468000000000160e+00 -2.739205000000000112e+00 4.534459000000000017e+00 2.069999999999999900e-04 -1.539999999999999919e-03 -2.469999999999999865e-04 3.526216999999999935e+00 2.739510000000000112e+00 -4.536829000000000001e+00 -3.528141000000000194e+00 -2.740137999999999963e+00 4.535675000000000345e+00 2.223999999999999849e-03 -1.546000000000000065e-03 -2.799999999999999755e-04 3.528223000000000109e+00 2.738767999999999869e+00 -4.536908000000000385e+00 -3.527105999999999852e+00 -2.740228000000000108e+00 4.535662999999999556e+00 1.889000000000000054e-03 -7.649999999999999465e-04 -7.609999999999999577e-04 3.527846999999999955e+00 2.739409000000000205e+00 -4.537281000000000120e+00 -3.528151999999999955e+00 -2.740015999999999785e+00 4.535243999999999609e+00 -3.220000000000000206e-04 -1.087000000000000076e-03 1.807999999999999928e-03 3.528075999999999990e+00 2.739606000000000208e+00 -4.537062999999999846e+00 2.188999999999999974e-03 -1.459000000000000010e-03 1.273000000000000043e-03 7.010000000000000172e-04 -5.249999999999999676e-04 1.010000000000000047e-03 1.977000000000000025e-03 -1.428000000000000016e-03 5.649999999999999641e-04 3.528523999999999994e+00 2.739580000000000126e+00 -4.536308000000000007e+00 3.526787000000000116e+00 2.739435999999999982e+00 -4.534981000000000151e+00 2.216000000000000088e-03 -1.067000000000000023e-03 1.020999999999999989e-03 1.062999999999999926e-03 -1.476000000000000098e-03 1.178000000000000011e-03 3.527336000000000027e+00 2.740107000000000070e+00 -4.536472999999999978e+00 -1.179999999999999951e-04 -1.685999999999999999e-03 1.644999999999999978e-03 6.409999999999999682e-04 -7.730000000000000326e-04 1.366000000000000027e-03 3.527204999999999924e+00 2.740037000000000056e+00 -4.535165000000000113e+00 3.527026999999999912e+00 2.739659000000000066e+00 -4.535313999999999623e+00 3.526892000000000138e+00 2.739917999999999854e+00 -4.535325000000000273e+00 3.527708000000000066e+00 2.740460999999999814e+00 -4.536794000000000437e+00 3.528261999999999787e+00 2.740359000000000211e+00 -4.535502000000000145e+00 3.526212999999999820e+00 2.740441000000000127e+00 -4.535833000000000226e+00 -3.529202000000000172e+00 -2.737775000000000070e+00 4.536101999999999634e+00 -3.528434999999999988e+00 -2.738650999999999947e+00 4.535357000000000305e+00 -3.527533000000000030e+00 -2.737896000000000107e+00 4.535797999999999774e+00 -3.527003000000000110e+00 -2.738995000000000068e+00 4.534804000000000279e+00 -3.527721999999999802e+00 -2.737668000000000212e+00 4.535864000000000118e+00 -3.528275999999999968e+00 -2.738515000000000033e+00 4.535783999999999594e+00 -3.527700999999999976e+00 -2.739485999999999866e+00 4.535641000000000034e+00 -3.526704000000000061e+00 -2.739393000000000189e+00 4.535785999999999873e+00 -3.528084999999999916e+00 -2.739862000000000020e+00 4.535515000000000185e+00 1.959999999999999937e-04 -5.029999999999999749e-04 -6.999999999999999895e-06 -3.529420000000000002e+00 -2.738341000000000136e+00 4.534733000000000125e+00 3.527572999999999848e+00 2.740158000000000094e+00 -4.537276000000000309e+00 -3.528652000000000122e+00 -2.739409000000000205e+00 4.534530000000000172e+00 1.217999999999999899e-03 -1.116999999999999937e-03 -1.072999999999999952e-03 -3.528846999999999845e+00 -2.738252000000000130e+00 4.535274000000000250e+00 1.768000000000000040e-03 -7.730000000000000326e-04 2.249999999999999938e-04 -3.527071999999999985e+00 -2.738805999999999852e+00 4.534842000000000262e+00 3.529199999999999893e+00 2.740448000000000217e+00 -4.537587000000000259e+00 3.527935999999999961e+00 2.739228999999999914e+00 -4.536374000000000350e+00 2.775000000000000123e-03 -6.849999999999999535e-04 -1.144999999999999967e-03 -3.526416999999999913e+00 -2.738503000000000132e+00 4.535124999999999851e+00 1.592000000000000099e-03 -1.436999999999999909e-03 3.429999999999999889e-04 -3.527905000000000069e+00 -2.739139000000000213e+00 4.534938000000000358e+00 3.527346000000000092e+00 2.740206999999999837e+00 -4.537194000000000393e+00 1.874000000000000015e-03 -1.092000000000000089e-03 -9.790000000000000525e-04 4.429999999999999802e-04 -3.209999999999999963e-04 -7.879999999999999635e-04 -3.528864000000000001e+00 -2.738786000000000165e+00 4.535434000000000410e+00 -1.459999999999999981e-04 -1.023999999999999954e-03 -5.410000000000000312e-04 3.526269999999999794e+00 2.739701999999999860e+00 -4.536380000000000301e+00 -3.528043999999999958e+00 -2.739666000000000157e+00 4.534600000000000186e+00 2.367000000000000180e-03 -1.853000000000000046e-03 -7.259999999999999743e-04 3.527753000000000139e+00 2.739033000000000051e+00 -4.536588000000000065e+00 -3.526301000000000130e+00 -2.740152000000000143e+00 4.534049000000000440e+00 3.528045000000000098e+00 2.740454000000000168e+00 -4.536073000000000022e+00 3.528097999999999956e+00 2.740207999999999977e+00 -4.536618999999999957e+00 3.526317999999999842e+00 2.740628000000000064e+00 -4.536531000000000091e+00 -3.528516999999999904e+00 -2.738856999999999875e+00 4.535516000000000325e+00 3.528894999999999893e+00 2.739031999999999911e+00 -4.537625000000000242e+00 5.770000000000000389e-04 -8.200000000000000095e-05 -1.389999999999999905e-04 -3.527222000000000079e+00 -2.739304999999999879e+00 4.536347000000000129e+00 3.526460999999999846e+00 2.739225999999999939e+00 -4.537026000000000003e+00 3.105999999999999820e-03 -4.020000000000000136e-04 -6.300000000000000261e-04 -3.527897999999999978e+00 -2.739093000000000000e+00 4.535880999999999830e+00 3.527695000000000025e+00 2.739752999999999883e+00 -4.536017000000000188e+00 8.620000000000000275e-04 -4.970000000000000459e-04 -5.410000000000000312e-04 -6.890000000000000508e-04 -1.103000000000000031e-03 1.226000000000000093e-03 -3.527896000000000143e+00 -2.738109000000000126e+00 4.535671999999999926e+00 3.527639000000000191e+00 2.739615000000000133e+00 -4.537031999999999954e+00 3.525900000000000034e+00 2.739730999999999916e+00 -4.536903999999999826e+00 1.150999999999999896e-03 1.021999999999999905e-03 -2.599999999999999840e-05 -3.527700999999999976e+00 -2.737804000000000126e+00 4.534824999999999662e+00 1.129999999999999928e-03 -2.959999999999999849e-04 9.929999999999999591e-04 -3.526670000000000194e+00 -2.738662000000000152e+00 4.536032999999999760e+00 3.529236000000000040e+00 2.739596999999999838e+00 -4.536736999999999576e+00 3.528359000000000023e+00 2.740520000000000067e+00 -4.536931000000000047e+00 1.799999999999999951e-03 4.550000000000000008e-04 -5.119999999999999768e-04 -3.527368000000000059e+00 -2.737833000000000183e+00 4.535146000000000122e+00 1.080000000000000014e-03 -7.200000000000000453e-04 4.000000000000000327e-05 -3.527668999999999944e+00 -2.738799999999999901e+00 4.535557999999999979e+00 3.526680999999999955e+00 2.740032999999999941e+00 -4.536889000000000394e+00 3.527900999999999954e+00 2.740078000000000014e+00 -4.536903999999999826e+00 5.339999999999999695e-04 6.679999999999999740e-04 -1.069999999999999988e-03 -3.528385999999999800e+00 -2.737932999999999950e+00 4.534417000000000364e+00 3.528401999999999816e+00 2.738910000000000178e+00 -4.535890000000000200e+00 9.950000000000000077e-04 -1.289999999999999914e-04 1.270999999999999994e-03 3.526647000000000087e+00 2.739043000000000117e+00 -4.535201999999999956e+00 3.047999999999999928e-03 -7.290000000000000473e-04 5.270000000000000162e-04 3.526924999999999866e+00 2.739100000000000090e+00 -4.537397000000000347e+00 1.294999999999999927e-03 -2.249999999999999938e-04 8.249999999999999955e-04 -4.299999999999999894e-04 -7.280000000000000230e-04 2.089000000000000145e-03 3.527944999999999887e+00 2.739799000000000095e+00 -4.536342999999999570e+00 3.526511999999999869e+00 2.740540000000000198e+00 -4.535411999999999999e+00 1.342000000000000094e-03 1.000000000000000082e-05 -7.929999999999999766e-04 1.044000000000000006e-03 -1.235999999999999903e-03 1.541999999999999968e-03 3.528132999999999964e+00 2.739608000000000043e+00 -4.536738999999999855e+00 3.527832000000000079e+00 2.741000000000000103e+00 -4.536268999999999885e+00 2.595999999999999783e-03 -3.939999999999999817e-04 -7.789999999999999616e-04 5.389999999999999826e-04 -1.812000000000000026e-03 2.121000000000000055e-03 3.527560999999999947e+00 2.739777000000000129e+00 -4.536426999999999765e+00 3.527125999999999983e+00 2.740629000000000204e+00 -4.535599000000000380e+00 8.769999999999999584e-04 8.899999999999999491e-05 -1.150000000000000035e-04 -3.528373999999999899e+00 -2.738992999999999789e+00 4.535834999999999617e+00 -3.527258999999999922e+00 -2.738961999999999897e+00 4.535775000000000112e+00 -3.527613999999999805e+00 -2.738923000000000219e+00 4.536444999999999617e+00 -3.528556000000000026e+00 -2.739501999999999882e+00 4.535733999999999710e+00 -3.528169999999999806e+00 -2.738557000000000130e+00 4.534646999999999650e+00 -3.526758000000000060e+00 -2.739546999999999954e+00 4.534773999999999639e+00 -3.526712999999999987e+00 -2.738471000000000100e+00 4.534366999999999592e+00 -3.527588999999999864e+00 -2.739508999999999972e+00 4.535745999999999611e+00 -3.528163999999999856e+00 -2.737855999999999845e+00 4.535077000000000247e+00 -3.529046000000000127e+00 -2.738982000000000028e+00 4.534894000000000425e+00 3.528602999999999934e+00 2.739275999999999822e+00 -4.536660000000000359e+00 1.100999999999999982e-03 -1.299000000000000024e-03 -1.214000000000000018e-03 -3.527085000000000026e+00 -2.739503000000000021e+00 4.534646999999999650e+00 3.526641000000000137e+00 2.739431000000000171e+00 -4.535998000000000197e+00 3.111000000000000050e-03 -1.678000000000000021e-03 -1.054999999999999948e-03 -3.527407999999999877e+00 -2.739129999999999843e+00 4.534711999999999854e+00 3.527274999999999938e+00 2.739472000000000129e+00 -4.537194000000000393e+00 1.087000000000000076e-03 -7.020000000000000415e-04 -9.959999999999999236e-04 -5.850000000000000165e-04 -1.716999999999999993e-03 2.869999999999999830e-04 -3.529199999999999893e+00 -2.738309000000000104e+00 4.536253999999999564e+00 3.527343000000000117e+00 2.739231000000000193e+00 -4.536769999999999747e+00 3.526362999999999914e+00 2.740368000000000137e+00 -4.536590000000000344e+00 1.026000000000000002e-03 2.439999999999999949e-04 -8.260000000000000198e-04 -3.528453999999999979e+00 -2.737925999999999860e+00 4.534081999999999724e+00 5.590000000000000351e-04 -1.588000000000000002e-03 5.079999999999999880e-04 -3.527493999999999907e+00 -2.739151999999999809e+00 4.535908000000000051e+00 3.529078999999999855e+00 2.739206999999999947e+00 -4.538011000000000017e+00 3.527823999999999849e+00 2.739761000000000113e+00 -4.537042999999999715e+00 2.724999999999999992e-03 4.769999999999999934e-04 -1.129000000000000012e-03 -3.527152000000000065e+00 -2.738992999999999789e+00 4.534290000000000376e+00 1.616999999999999948e-03 -1.969999999999999963e-03 2.579999999999999828e-04 -3.527111999999999803e+00 -2.738983999999999863e+00 4.535535999999999568e+00 3.527661999999999853e+00 2.739085999999999910e+00 -4.537239999999999718e+00 3.527857000000000021e+00 2.739567000000000085e+00 -4.536718999999999724e+00 3.559999999999999797e-04 5.010000000000000347e-04 -5.540000000000000219e-04 -3.528910000000000213e+00 -2.738700999999999830e+00 4.534104000000000134e+00