-4.119981287078035921e-04 -2.344300001337259673e-02 1.780700002569084173e-02 3.986999827661699344e-03 2.025000298065735178e-03 -3.476000024030388713e-03 3.778999961325081071e-03 5.410002862122861075e-04 4.059999786000739546e-04 3.619000177340997611e-03 -2.234999724790781312e-03 1.504999982256132037e-03 -1.817200084930533158e-02 1.259699864435988304e-02 1.873400008772396763e-02 2.237199927071037778e-02 1.087700170889109932e-02 1.690999986564501595e-02 3.115400107913090036e-02 -1.598999766737541420e-02 -2.358700015599354480e-02 3.209099892074690485e-02 1.619400245338094638e-02 2.635999980668651474e-02 1.491999890326400641e-03 1.558000114316679960e-03 1.477999990208126021e-03 6.609999786110526583e-04 2.080000489677508754e-04 -1.025000003856390771e-03 1.143000088476770317e-03 -1.152999913323871648e-03 2.309999948425097652e-04 1.009999999914315658e-04 -3.199999280084971927e-05 -4.400000005255413774e-04 3.150000188995720788e-04 -2.179999757399590159e-04 4.369999984790005790e-04 -6.900000112413895133e-04 1.589999479569623034e-04 1.420000036498789381e-04 2.610000576662582176e-04 -7.099999795423082719e-04 7.189999992685200403e-04 -1.930000167100846798e-04 3.139999866769274174e-04 1.275000000751685047e-03 -2.420005720156121506e-04 2.099987847254048255e-05 -1.033409999986851791e-01 8.621999890415026416e-03 3.126000675036265473e-03 2.297799994928531597e-02 -1.093349998096220937e-01 -1.204008251061423722e-03 1.799300060471604318e-02 3.265000276620870848e-03 -2.405999735938461025e-03 1.714799998438096967e-02 -9.940001556339680445e-04 3.549999945245552267e-03 2.044500000194072672e-02 2.560000031090949469e-03 1.027000213295326848e-03 1.970399998484332477e-02 2.147000487068245148e-03 -4.899999816543522402e-03 2.110199999304336257e-02 2.161999726089033035e-03 4.992000182266516026e-03 1.877499998307968071e-02 -6.799992890343832389e-05 4.360000136899661797e-04 1.885399999993983902e-02 -1.420999860578499351e-03 -3.880000875509919539e-04 1.994200000823128163e-02 -1.041999898502872848e-03 1.059999410109888161e-04 1.984000000564581020e-02 -1.401999890895193031e-03 1.299991388797952406e-05 1.994400000772585113e-02 1.902000217226736426e-03 -1.407999836111777526e-03 2.006199999090765157e-02 1.788000148867035111e-03 -3.839998430894785955e-04 2.170799999051406873e-02 2.537000042574390386e-03 7.670002100754961648e-04 1.822199998522998701e-02 -3.409995900193296507e-04 -3.957000005755432169e-03 2.005700000583482412e-02 1.147900059914871637e-02 -7.626999127801790609e-03 4.042999944256009566e-03 8.714999271286954022e-03 7.227000626158732420e-03 -3.299600005532441621e-02 7.953000482284902986e-03 -6.931999406109998381e-03 -7.606000036975198858e-03 -1.419199942764302023e-02 -7.214001068502040245e-03 4.848000085543683994e-03 2.487998904182232504e-03 1.481400019261404008e-02 4.450999971469243345e-03 -4.014000174065251135e-03 9.299996776492486022e-04 -1.879199997877225442e-02 -3.929000111467042394e-03 2.399968300602816081e-05 -1.986499997833646169e-02 -5.499988925645901651e-05 -3.123000026861130415e-03 -2.272699999657691594e-02 -1.347000281919114029e-03 2.238999877752943443e-03 -2.039599999480123937e-02 -5.809999819314520678e-04 -1.724000064266321703e-03 -2.034799999507090271e-02 3.319998307969054233e-04 7.620000049189446824e-04 -2.021300000259373258e-02 3.509999494741261172e-04 -7.519999928889250975e-04 -1.945700000118631354e-02 -1.000003605289435825e-06 -1.441000020449718097e-03 -2.039699999855509871e-02 1.485999888303002770e-03 -4.999907894633587659e-06 -2.030400000819751125e-02 -7.100015118480244760e-05 5.149999743200863421e-04 -2.033300000012251349e-02 -2.930002832162005122e-04 2.228999957095652469e-03 -2.076800000060917764e-02
-4.099981306002077456e-04 -2.341900001323532141e-02 1.779300002565582794e-02 3.980999827835039924e-03 2.023000297615949305e-03 -3.472000023995271741e-03 3.771999961406231373e-03 5.400002856838731578e-04 4.069999786397118682e-04 3.612000176946287243e-03 -2.229999725323190268e-03 1.501999982289776601e-03 -1.815200084849160830e-02 1.258499864585550625e-02 1.871700008762555711e-02 2.234999927147606966e-02 1.086600170721525004e-02 1.689799986577743968e-02 3.113100107814935347e-02 -1.597599766910092964e-02 -2.357300015588056907e-02 3.206299892178752359e-02 1.617900245124631597e-02 2.634299980685604961e-02 1.488999890309841007e-03 1.558000114086792454e-03 1.474999990224685510e-03 6.609999786811630255e-04 2.070000489667520027e-04 -1.026000003855391919e-03 1.142000088238839849e-03 -1.149999913401499691e-03 2.289999948450330074e-04 1.000000000725817024e-04 -3.299999287548109828e-05 -4.390000005190226417e-04 3.150000190397929216e-04 -2.199999757419567612e-04 4.349999984809983355e-04 -6.890000112524293776e-04 1.589999480305947827e-04 1.400000036443590536e-04 2.610000575851080702e-04 -7.089999795433071230e-04 7.179999992675211405e-04 -1.940000166510139816e-04 3.129999865983005636e-04 1.272000000758203523e-03 -2.440005716457818393e-04 2.099987838820472220e-05 -1.032739999986741347e-01 8.613999890396821166e-03 3.125000674414242941e-03 2.296099994933047464e-02 -1.092529998099963789e-01 -1.200008244872727801e-03 1.798000060425942320e-02 3.267000276397852027e-03 -2.403999735800185951e-03 1.713499998436793237e-02 -9.920001555765451794e-04 3.547999945379831307e-03 2.042800000193168569e-02 2.559000031137332373e-03 1.025000213200718234e-03 1.968499998485084140e-02 2.146000486526145664e-03 -4.893999816635134087e-03 2.108599999304289208e-02 2.160999726151976042e-03 4.990000182174903279e-03 1.875899998308720035e-02 -6.699992906738626991e-05 4.370000137496143997e-04 1.883799999993332128e-02 -1.422999860526596256e-03 -3.900000877202322754e-04 1.992400000824431569e-02 -1.037999898467529495e-03 1.039999412925334254e-04 1.981900000562572539e-02 -1.400999890924439903e-03 1.199991394463112494e-05 1.992500000772132879e-02 1.902000217046228908e-03 -1.406999836130756352e-03 2.004299999090665071e-02 1.786000148924457879e-03 -3.859998432577200415e-04 2.169099999052710379e-02 2.536000042534103469e-03 7.660002099788893902e-04 1.820099998523650592e-02 -3.399995903345380977e-04 -3.954000005695784171e-03 2.004100000582630797e-02 1.147000059857514534e-02 -7.619999128490454084e-03 4.034999944298696579e-03 8.709999271889772368e-03 7.221000625807550734e-03 -3.296900005529082578e-02 7.946000481950911409e-03 -6.926999406631419165e-03 -7.598000036941553702e-03 -1.417699942812440141e-02 -7.208001067372580943e-03 4.843000085454893244e-03 2.488998905051156060e-03 1.480200019268267629e-02 4.443999971475710332e-03 -4.000000173766602753e-03 9.269996787210575120e-04 -1.877899997884653616e-02 -3.926000111232984431e-03 2.199968324790209045e-05 -1.984999997835102184e-02 -5.299988979913495234e-05 -3.114000026684897796e-03 -2.270199999659694781e-02 -1.344000281609425158e-03 2.235999877994817274e-03 -2.038099999481480032e-02 -5.829999819943947146e-04 -1.722000064401600162e-03 -2.033199999506185920e-02 3.319998310364835831e-04 7.600000049349267496e-04 -2.019700000259173900e-02 3.519999494647340775e-04 -7.509999928013084188e-04 -1.944500000119283450e-02 -1.000003732822811557e-06 -1.438000020431738375e-03 -2.037899999855809566e-02 1.486999888326730017e-03 -3.999907801023548626e-06 -2.028600000820402968e-02 -7.300015107440531762e-05 5.149999741888034452e-04 -2.031300000011147452e-02 -2.930002825708717781e-04 2.221999957116629117e-03 -2.074700000060218652e-02
-4.099981316921504711e-04 -2.340500001324131302e-02 1.778700002564184701e-02 3.981999827916190421e-03 2.022000297692578413e-03 -3.471000023999792732e-03 3.770999961271530396e-03 5.420002856112394671e-04 4.099999786432339177e-04 3.613000177119627017e-03 -2.231999725243564558e-03 1.505999982286254342e-03 -1.814100084798979384e-02 1.257799864668244540e-02 1.871200008757182773e-02 2.233499927196684262e-02 1.085900170607380366e-02 1.689099986586722890e-02 3.110700107751284207e-02 -1.596699767090806535e-02 -2.356500015575708346e-02 3.203999892257529403e-02 1.616800244949883128e-02 2.633499980699399723e-02 1.489999890379951290e-03 1.557000114161424028e-03 1.473999990220164688e-03 6.609999786000129865e-04 2.080000489657531245e-04 -1.027000003856390602e-03 1.142000088325509886e-03 -1.150999913399501856e-03 2.309999948460318773e-04 1.010000000725816860e-04 -3.299999279985084102e-05 -4.390000005245424776e-04 3.170000189641626587e-04 -2.189999755906962494e-04 4.349999984689597882e-04 -6.910000112413895376e-04 1.589999478813320191e-04 1.420000036553987740e-04 2.600000577584480124e-04 -7.109999796149418187e-04 7.219999992750387703e-04 -1.940000165533042995e-04 3.119999866022960412e-04 1.276000000759202604e-03 -2.420005715889355800e-04 2.199987856343827889e-05 -1.032499999986861705e-01 8.616999890461411390e-03 3.124000674639135829e-03 2.295899994931491564e-02 -1.092429998098175120e-01 -1.202008244111431009e-03 1.798500060420622423e-02 3.270000276089811073e-03 -2.399999735574293632e-03 1.713399998434737490e-02 -9.920001555229942657e-04 3.546999945375835673e-03 2.042400000193268436e-02 2.559000031299632667e-03 1.023000213202715936e-03 1.968699998485283834e-02 2.148000486557617716e-03 -4.894999816491865142e-03 2.107799999303285043e-02 2.164999726157495596e-03 4.990000182478423509e-03 1.875999998306511832e-02 -6.699992909498554423e-05 4.370000137446200224e-04 1.883299999993331975e-02 -1.422999860369815852e-03 -3.920000877192333401e-04 1.992500000824631162e-02 -1.038999898473049301e-03 1.039999412159042926e-04 1.981800000563124428e-02 -1.398999891081220475e-03 1.399991409489275672e-05 1.992400000770829308e-02 1.900000217116339226e-03 -1.407999836283015766e-03 2.004199999091869216e-02 1.786000148756637911e-03 -3.839998432607166735e-04 2.168799999052510585e-02 2.538000042609733775e-03 7.650002101301498804e-04 1.820099998522646534e-02 -3.369995903400579691e-04 -3.954000005469892817e-03 2.004000000580974730e-02 1.147200059851055491e-02 -7.618999128337196336e-03 4.036999944286657864e-03 8.711999272138741882e-03 7.218000625962806352e-03 -3.296500005529887090e-02 7.947000481757138593e-03 -6.923999406549795690e-03 -7.592000036950070398e-03 -1.417699942803221300e-02 -7.209001067369584341e-03 4.846000085455891108e-03 2.489998905278046747e-03 1.479900019275830723e-02 4.443999971473187177e-03 -3.985000173593261988e-03 9.249996798595070411e-04 -1.877499997892733558e-02 -3.920000111118714797e-03 2.099968370867577862e-05 -1.984299997838314192e-02 -4.899989038596973674e-05 -3.105000026365396099e-03 -2.268499999662801705e-02 -1.342000281657456350e-03 2.236999878151072190e-03 -2.037599999482683777e-02 -5.809999819778353209e-04 -1.722000064247343129e-03 -2.032899999507289945e-02 3.309998310751226269e-04 7.600000048662886205e-04 -2.019000000258621905e-02 3.529999494277428584e-04 -7.499999927186860090e-04 -1.943800000119935353e-02 -3.856484052749251550e-12 -1.436000020351113800e-03 -2.037399999856561242e-02 1.486999888278698993e-03 -2.999907796029167341e-06 -2.028100000820502735e-02 -7.300015097669563548e-05 5.139999741927989228e-04 -2.030900000011047479e-02 -2.920002820729313605e-04 2.215999957200250666e-03 -2.073900000060171361e-02
-4.079981351026796600e-04 -2.336100001310503771e-02 1.777200002558685515e-02 3.975999828165160607e-03 2.019000297242792407e-03 -3.467000023963676993e-03 3.769999961492900929e-03 5.390002855346103698e-04 4.089999786517504099e-04 3.608000176724916047e-03 -2.226999725624711698e-03 1.502999982308859343e-03 -1.810600084633861781e-02 1.255499864931352086e-02 1.869600008740161107e-02 2.229399927347228139e-02 1.083800170295797990e-02 1.687599986611451608e-02 3.105800107546307851e-02 -1.593799767458797811e-02 -2.353900015551558048e-02 3.198799892467860811e-02 1.613800244553609264e-02 2.630499980731099141e-02 1.485999890239730458e-03 1.559000113860900798e-03 1.475999990240246329e-03 6.579999786220922572e-04 2.080000487428578545e-04 -1.023000003839831269e-03 1.142000088319989996e-03 -1.150999913400500623e-03 2.299999948460318801e-04 1.010000001482119433e-04 -3.399999279985083822e-05 -4.390000005235436022e-04 3.130000191209430203e-04 -2.209999758922183974e-04 4.359999984930369612e-04 -6.860000113170197818e-04 1.599999482594833297e-04 1.420000036268006377e-04 2.590000575205175445e-04 -7.079999796925697539e-04 7.199999992775619855e-04 -1.930000165588241653e-04 3.119999866769274230e-04 1.275000000753682798e-03 -2.430005713405420948e-04 2.199987853275748177e-05 -1.032049999986806577e-01 8.614999890459763138e-03 3.123000674473890709e-03 2.294499994932695450e-02 -1.091749998100239732e-01 -1.200008238978562220e-03 1.797500060382887371e-02 3.276000275949590267e-03 -2.397999735118514289e-03 1.713599998431225915e-02 -9.910001552370325574e-04 3.542999945448469749e-03 2.042100000193115827e-02 2.558000031406734362e-03 1.021000213119094627e-03 1.967899998486035557e-02 2.152000486378757415e-03 -4.892999816194338984e-03 2.107299999300877441e-02 2.167999726216565930e-03 4.989000182702318063e-03 1.875699998304955832e-02 -6.699992919269522637e-05 4.380000137406245449e-04 1.882899999993232001e-02 -1.422999860565235270e-03 -3.900000877272244036e-04 1.991700000824431563e-02 -1.037999898349388104e-03 1.019999412865401782e-04 1.981300000562772473e-02 -1.398999890968598975e-03 1.199991408790062392e-05 1.991700000771029141e-02 1.900000216786218964e-03 -1.403999836288010155e-03 2.003699999091469730e-02 1.790000148799148925e-03 -3.849998429641888673e-04 2.168199999050402643e-02 2.538000042598693995e-03 7.650002101281521295e-04 1.819899998522646681e-02 -3.339995906000678460e-04 -3.951000005248994466e-03 2.003400000579019097e-02 1.147400059847743584e-02 -7.618999128191928857e-03 4.030999944275618155e-03 8.713999272409789221e-03 7.215000626122057906e-03 -3.295700005530691201e-02 7.947000481832769067e-03 -6.924999406549795823e-03 -7.592000036949072064e-03 -1.416999942813544112e-02 -7.208001066845166893e-03 4.841000085416253748e-03 2.493998905326078302e-03 1.479800019305583386e-02 4.438999971452106154e-03 -3.952000173133960945e-03 9.189996823563043689e-04 -1.877399997910349921e-02 -3.913000111166745759e-03 2.199968424308196076e-05 -1.983799997842278229e-02 -4.099989183068894065e-05 -3.084000025734383310e-03 -2.265899999669315074e-02 -1.339000281705487192e-03 2.237999878382957147e-03 -2.037099999484439858e-02 -5.819999818635660741e-04 -1.723000064315981066e-03 -2.032199999506638030e-02 3.339998312650220656e-04 7.580000051001714719e-04 -2.018300000260078025e-02 3.519999492063718982e-04 -7.469999927933174263e-04 -1.943700000119682678e-02 -3.969105580202966162e-12 -1.434000020344121515e-03 -2.036699999856761076e-02 1.486999888295258664e-03 -2.999907793032536721e-06 -2.027800000820502782e-02 -7.500015086242638586e-05 5.129999740485305122e-04 -2.030200000009843575e-02 -2.900002808832789314e-04 2.200999957361499462e-03 -2.072900000059776926e-02
-4.049981409791836230e-04 -2.328600001291510416e-02 1.773500002549538088e-02 3.962999828122648616e-03 2.020000296265592014e-03 -3.461000023892917693e-03 3.764999961756783364e-03 5.350002851494669665e-04 4.019999786833451921e-04 3.595000176368844114e-03 -2.221999726603909962e-03 1.506999982375623092e-03 -1.804600084339233121e-02 1.251399865382336885e-02 1.866800008711137077e-02 2.222999927579144899e-02 1.080500169808567938e-02 1.684399986650075495e-02 3.097800107226007793e-02 -1.589199768058845511e-02 -2.348900015511993719e-02 3.188899892823767596e-02 1.608700243799475807e-02 2.625099980790840393e-02 1.491999890309840971e-03 1.558000114313683225e-03 1.474999990208126057e-03 6.599999786055327439e-04 2.080000488911217427e-04 -1.026000003850871013e-03 1.143000088260919325e-03 -1.149999913321873932e-03 2.329999948395131333e-04 9.400000013717225045e-05 -3.399999333126039000e-05 -4.410000004849045827e-04 3.140000187317519781e-04 -2.159999758185859051e-04 4.339999984825226994e-04 -6.860000112634689765e-04 1.589999482554878035e-04 1.380000036277994973e-04 2.600000572439480572e-04 -7.049999796259295197e-04 7.109999992690455755e-04 -1.900000161326419450e-04 3.059999868988238342e-04 1.270000000743116367e-03 -2.420005706295517490e-04 1.799987868230464280e-05 -1.031309999986821796e-01 8.609999890339973747e-03 3.124000674087748768e-03 2.293699994935355368e-02 -1.090919998103320049e-01 -1.196008232702249754e-03 1.797400060336673197e-02 3.280000276003141278e-03 -2.398999734819988894e-03 1.713199998429118173e-02 -9.860001550487807864e-04 3.539999945819629051e-03 2.041400000190655636e-02 2.558000031762805871e-03 1.016000213115098895e-03 1.967499998486535104e-02 2.155000486329078802e-03 -4.892999815976437766e-03 2.106399999299221268e-02 2.168999726604109359e-03 4.983000182765961669e-03 1.874499998305003204e-02 -6.199992924237393956e-05 4.380000141097858978e-04 1.881999999990472197e-02 -1.419999860452613805e-03 -3.920000875073257544e-04 1.991000000822975430e-02 -1.038999898701587843e-03 1.059999412019200170e-04 1.980400000562924923e-02 -1.403999891401948742e-03 1.699991369976055374e-05 1.990700000773289874e-02 1.893000216288278454e-03 -1.397999836825412814e-03 2.002899999094734373e-02 1.793000148716351189e-03 -3.849998427522812274e-04 2.166699999048746564e-02 2.544000042495463999e-03 7.660002105769393201e-04 1.819399998519234674e-02 -3.269995908655976241e-04 -3.948000004726575154e-03 2.002700000574855754e-02 1.146900059789834718e-02 -7.611999128579070503e-03 4.021999944296225475e-03 8.712999272293299804e-03 7.218000626066405773e-03 -3.293700005530439401e-02 7.951000481482218413e-03 -6.919999406242279862e-03 -7.587000036976146097e-03 -1.415599942879568196e-02 -7.200001065796332068e-03 4.831000085330984690e-03 2.497998906189482365e-03 1.478600019335036576e-02 4.430999971442013338e-03 -3.907000172613941252e-03 9.129996857716524139e-04 -1.876199997934590094e-02 -3.911000111030397963e-03 2.099968440533012850e-05 -1.982699997843282227e-02 -2.799989327376042536e-05 -3.062000024711234846e-03 -2.261899999678688294e-02 -1.334000281465908856e-03 2.235999878777090825e-03 -2.035499999487000097e-02 -5.779999815814766293e-04 -1.726000064003471463e-03 -2.031199999508546267e-02 3.329998316818123956e-04 7.530000050315333298e-04 -2.017600000259026430e-02 3.479999491710283280e-04 -7.449999930748620221e-04 -1.941600000117674543e-02 -1.000004269978889807e-06 -1.429000020405767502e-03 -2.035299999856708675e-02 1.488999888507237584e-03 -4.999907630784370424e-06 -2.026700000821407208e-02 -7.500015041251697546e-05 5.079999740615158800e-04 -2.028900000009344062e-02 -2.890002793784180552e-04 2.182999957463101128e-03 -2.070300000058530876e-02
-3.829981480122209773e-04 -2.319600001129219768e-02 1.769400002528404361e-02 3.947999830408116181e-03 1.990000295134135028e-03 -3.458000023780153764e-03 3.749999961439350396e-03 5.400002840260007507e-04 4.129999787611486747e-04 3.596000176337372459e-03 -2.220999726520288351e-03 1.514999982369104412e-03 -1.799300084099366218e-02 1.247899865778682310e-02 1.862300008685378178e-02 2.214299927855887390e-02 1.076600169147288316e-02 1.681099986701993509e-02 3.085500106925801941e-02 -1.584799768983204127e-02 -2.343000015448494511e-02 3.179199893171782976e-02 1.603500243057671276e-02 2.616899980849577215e-02 1.478999889915130024e-03 1.563000113327493376e-03 1.471999990274889744e-03 6.489999794335935121e-04 1.980000480721743217e-04 -1.013000003780163694e-03 1.138000087449418055e-03 -1.139999913710013947e-03 2.229999948571236403e-04 9.699999996935216565e-05 -3.199999310736625696e-05 -4.440000005034619142e-04 3.220000193494815103e-04 -2.229999751975617929e-04 4.499999984453559873e-04 -6.850000116692195806e-04 1.639999483261236695e-04 1.330000036172852710e-04 2.720000575166454156e-04 -7.069999786963910042e-04 7.329999992048049631e-04 -2.020000147287861201e-04 2.869999859852674661e-04 1.264000000828333211e-03 -2.350005710386801475e-04 3.099987931559960774e-05 -1.030269999987337981e-01 8.610999890111437072e-03 3.126000674149394167e-03 2.292299994934603527e-02 -1.089709998105163891e-01 -1.194008223556981829e-03 1.796800060269683127e-02 3.283000274911198734e-03 -2.384999734599091686e-03 1.712599998426063419e-02 -9.890001546777973419e-04 3.533999945577754459e-03 2.039900000192910665e-02 2.566000031923458807e-03 1.013000213708154483e-03 1.966299998482418793e-02 2.166000485602600188e-03 -4.884999815166479568e-03 2.104199999292350604e-02 2.166999727692756929e-03 4.967000182592726590e-03 1.872299998307705438e-02 -6.499992994512567143e-05 4.470000138788996261e-04 1.881599999991229177e-02 -1.427999860600002177e-03 -3.910000881253532234e-04 1.989700000827291509e-02 -1.023999897292212150e-03 8.699994233137955187e-05 1.979900000556543069e-02 -1.403999890577183572e-03 4.999913684777434221e-06 1.989200000774488108e-02 1.911000216902712526e-03 -1.406999835476054799e-03 2.001699999085697693e-02 1.795000148823452848e-03 -3.869998426090117652e-04 2.165899999047842667e-02 2.546000042125057868e-03 7.690002107022291455e-04 1.816799998517831111e-02 -3.279995910792242908e-04 -3.947000004827177708e-03 2.000200000575307752e-02 1.147200059716247528e-02 -7.602999128362169026e-03 4.011999944270676008e-03 8.710999273403447971e-03 7.205000625938118644e-03 -3.291400005528036243e-02 7.938000481402715178e-03 -6.917999407212487885e-03 -7.574000036906385069e-03 -1.413799942986554599e-02 -7.186001064436985282e-03 4.829000085217642797e-03 2.506998906619537122e-03 1.477900019401305783e-02 4.412999971399327211e-03 -3.851000172344539070e-03 9.089996900009535792e-04 -1.876799997965101358e-02 -3.903000111373781510e-03 2.699968503034970956e-05 -1.980699997848297395e-02 -6.999896179758391270e-06 -3.020000023074054501e-03 -2.256999999694475276e-02 -1.336000281733663040e-03 2.240999878645807616e-03 -2.033499999486395454e-02 -5.699999810708488704e-04 -1.731000063374456190e-03 -2.028799999512462607e-02 3.319998320191002404e-04 7.500000049758807257e-04 -2.015600000258175109e-02 3.549999476269517827e-04 -7.239999925374591408e-04 -1.940800000123636335e-02 -4.227467767543729221e-12 -1.430000020336130630e-03 -2.035899999857160650e-02 1.466999888379704083e-03 -1.999909276670262134e-06 -2.024900000809563144e-02 -7.300014941498849167e-05 4.969999742427428247e-04 -2.025900000009349042e-02 -2.740002756896717131e-04 2.136999958635512221e-03 -2.066500000062215792e-02
