-1.550006162620318835e-04 -2.000123269270437443e-06 -1.116719999991424156e-01 3.346999975824918941e-03 3.730002538646502350e-04 7.309999811524627413e-04 -1.720039999849503065e-01 -2.500130094050494320e-04 -6.989990503130586851e-04 3.601999974817421055e-03 3.880002731733400668e-04 7.539999797299165411e-04 -5.389999765356697859e-04 -2.650000401454044607e-04 6.200000032399043300e-04 9.600001686612388352e-05 -1.589999918634797769e-04 8.769999996289151766e-04 7.380001148993307674e-04 -1.568999944866099599e-03 -6.820000025064161791e-04 9.639998899121657652e-04 1.454000072885588838e-03 -2.200000677350708153e-05 1.999999915514899973e-04 4.500001421307792202e-05 -9.140000011489205758e-04 -1.260000137821723433e-04 1.579999901389599201e-04 -3.319999994623206623e-04 -2.300000183215528593e-04 2.069999821225825887e-04 -4.829999989372006598e-04 -1.320000120294122800e-04 1.329999896602065599e-04 -3.569999994042296633e-04 -5.649999798208898451e-04 -2.220000421177845227e-04 6.140000033404689229e-04 9.929998919282309773e-04 1.428000075087856304e-03 -1.300000690761210053e-05 7.130001175701169286e-04 -1.602999946738875798e-03 -6.640000023344579160e-04 1.170000134130835215e-04 -1.139999902842343794e-04 8.679999994680487373e-04 -4.029976582867772386e-04 -2.822199999297008571e-02 3.755100003041479673e-02 1.290000377240343478e-03 -3.572999883071730637e-03 1.938699999644837371e-02 3.775000141280935445e-03 -3.649996939249055671e-04 2.059399997952713821e-02 6.317000051843863970e-03 7.010004967319998425e-04 1.899699996443086208e-02 3.610002077930607998e-04 -1.176999951203640780e-03 2.151799999918301010e-02 -2.519998375734755665e-04 -6.469999985209152473e-04 2.056100000203727601e-02 -6.159998656755527211e-04 -2.520000257296906758e-04 2.088200000365194806e-02 1.940000591162502515e-04 7.060000350323756852e-04 2.038299999822393987e-02 6.669999609815406962e-04 2.041000071317907155e-03 2.089599999427954949e-02 1.010001089177865621e-04 2.734849489454172102e-11 1.973199999944249411e-02 1.937000161556110857e-03 -5.889998323299969066e-04 2.119799998989637876e-02 6.709998865392054678e-04 2.901000069919338915e-03 1.919299999339843868e-02 -2.237500092750346198e-02 1.500999834535968191e-02 3.762900010851363136e-02 3.017899901567318299e-02 1.596700232284707296e-02 4.044699981746721629e-02 3.306300123097956345e-02 -1.621599749861167214e-02 8.259998336947991810e-04 2.656299920806346956e-02 1.320400204636844148e-02 3.744399984018691174e-02 2.756299894060702457e-02 1.382200208205760714e-02 -2.542000165950247456e-03 3.201300096177728954e-02 -1.554199761751404348e-02 -3.870900016118259540e-02 3.124199875139848162e-02 1.657300236371248361e-02 8.729998109942952193e-04 -2.337000119540651524e-02 1.563499823018146481e-02 -2.341999886618411058e-03 6.539996667245576677e-04 2.859000028280996031e-03 -2.120500000646577399e-02 1.934999943434575868e-03 -6.519998728149072661e-04 -1.918100001002965432e-02 1.019998862915550499e-04 -3.000012903531681711e-06 -2.064100000056002734e-02 7.139997435461975864e-04 1.969000034539878600e-03 -1.948200000590796441e-02 2.169998349442943950e-04 7.229999964382215335e-04 -1.999600000191999530e-02 -6.650000912325800938e-04 -2.180000697872032920e-04 -1.951499999611154210e-02 -2.090000641197932267e-04 -5.970000355804891672e-04 -1.979599999825002246e-02 3.329999815161453249e-04 -1.130999993638955991e-03 -1.884500000070838191e-02 6.268999829933648640e-03 6.870004527531141901e-04 -2.139700003529020067e-02 3.793999936996936360e-03 -6.059997327536565488e-04 -1.971700002033701174e-02 1.317000154531313989e-03 -3.575999921372354558e-03 -2.100100000369766601e-02 -4.029977872123098148e-04 -2.943700003292915382e-02 -2.452999968371571277e-03
-1.560006162035378725e-04 -1.233069433790978681e-10 -1.116339999991388943e-01 3.341999975917108422e-03 3.720002534894955508e-04 7.339999811810609233e-04 -1.719149999850204391e-01 -2.490130026729576356e-04 -6.979990508053248279e-04 3.598999974904090911e-03 3.870002729484470216e-04 7.559999797474750271e-04 -5.369999764489999166e-04 -2.660000399921462195e-04 6.220000032298635823e-04 9.500001686060402333e-05 -1.589999919401089096e-04 8.759999996344351508e-04 7.350001147370305082e-04 -1.566999945094988073e-03 -6.840000024918544167e-04 9.629998901390565127e-04 1.451000072809958616e-03 -2.200000676499059554e-05 1.989999917082703777e-04 4.300001413844654582e-05 -9.130000011414029105e-04 -1.260000137821723433e-04 1.579999901389599201e-04 -3.319999994623206623e-04 -2.300000182459226020e-04 2.059999821225825915e-04 -4.829999989362017843e-04 -1.330000121972323536e-04 1.349999895815796706e-04 -3.599999994007075429e-04 -5.649999798854804306e-04 -2.210000421157867474e-04 6.160000033394700961e-04 9.909998921661614807e-04 1.425000074938593576e-03 -1.100000689357576053e-05 7.140001174834470239e-04 -1.601999946665243158e-03 -6.660000023409767302e-04 1.180000133208936996e-04 -1.129999902116007648e-04 8.649999994615301157e-04 -4.009976600555201654e-04 -2.819999999283780492e-02 3.753200003038178328e-02 1.289000376596662490e-03 -3.564999883154353587e-03 1.937999999644590340e-02 3.768000140982286257e-03 -3.619996944673028387e-04 2.058099997956277724e-02 6.306000051842217125e-03 7.000004958860827319e-04 1.898299996449257648e-02 3.590002073486712715e-04 -1.171999951366887787e-03 2.150599999918905575e-02 -2.479998378020140657e-04 -6.449999982323785346e-04 2.054700000201319793e-02 -6.159998659686818489e-04 -2.490000257416772169e-04 2.087000000364895233e-02 1.910000588987515249e-04 7.080000347934983481e-04 2.037099999823850302e-02 6.669999614502341396e-04 2.034000071306919788e-03 2.088499999428654330e-02 1.030001087869577506e-04 1.000027489766637913e-06 1.972199999943045554e-02 1.937000161408722462e-03 -5.879998323429822633e-04 2.118499998989537697e-02 6.679998868842375575e-04 2.896000069686454660e-03 1.918699999341998835e-02 -2.236400092668421394e-02 1.499799834617563180e-02 3.761300010846489739e-02 3.015699901657192816e-02 1.595300232115423947e-02 4.041799981760264143e-02 3.302800123032648832e-02 -1.620699750125373720e-02 8.309998338790042759e-04 2.654299920910408589e-02 1.318900204483885487e-02 3.742699984031229443e-02 2.753999894165480578e-02 1.380800208031611291e-02 -2.544000165809306210e-03 3.198600096086198774e-02 -1.552799761953008867e-02 -3.868300016104754546e-02 3.121399875264555673e-02 1.655600236158784322e-02 8.659998111658320959e-04 -2.335100119427757984e-02 1.561999823161744003e-02 -2.342999886708305429e-03 6.549996670176867113e-04 2.856000028368612612e-03 -2.119300000646829815e-02 1.931999943257363709e-03 -6.489998730328080858e-04 -1.917200001001609019e-02 1.019998862065327964e-04 -1.000012891545164405e-06 -2.062900000056202762e-02 7.099997436400351872e-04 1.969000034254338345e-03 -1.946500000588588519e-02 2.139998349183428589e-04 7.239999962203205568e-04 -1.998700000190443624e-02 -6.570000915279337016e-04 -2.130000691671780889e-04 -1.949999999616069263e-02 -2.100000642324147517e-04 -5.950000356491272476e-04 -1.978899999824650091e-02 3.319999814256031976e-04 -1.128999993703598461e-03 -1.883400000070485983e-02 6.258999830221257527e-03 6.840004520077992830e-04 -2.138600003523200704e-02 3.791999937144324272e-03 -6.069997328919315982e-04 -1.970400002032497364e-02 1.315000154283991595e-03 -3.571999921513626004e-03 -2.099100000369062344e-02 -4.019977888171048092e-04 -2.941600003285652076e-02 -2.455999968398067407e-03
-1.550006155996492185e-04 -2.000123149405210537e-06 -1.115519999991424205e-01 3.340999975917108289e-03 3.720002534138652935e-04 7.339999811865807050e-04 -1.717189999850850246e-01 -2.480129878474294364e-04 -6.959990518882152840e-04 3.595999975125461611e-03 3.840002727205574099e-04 7.549999797670311910e-04 -5.359999765356698214e-04 -2.650000399185136889e-04 6.200000032233447681e-04 9.800001686060400138e-05 -1.589999917132181378e-04 8.759999996178755889e-04 7.370001145101396766e-04 -1.563999944943727594e-03 -6.840000025058907149e-04 9.609998900523866435e-04 1.452000072656700266e-03 -2.400000675494976313e-05 1.979999914813795816e-04 4.600001406281627338e-05 -9.130000011388796468e-04 -1.240000138688423050e-04 1.589999902882226809e-04 -3.339999994743592581e-04 -2.280000182735218684e-04 2.059999822688487288e-04 -4.879999989472414692e-04 -1.340000122027522138e-04 1.349999895049505379e-04 -3.609999993951876771e-04 -5.649999798910003207e-04 -2.210000421167856229e-04 6.150000033394700718e-04 9.909998921661614807e-04 1.425000074938593576e-03 -1.100000689357576053e-05 7.150001174779271581e-04 -1.601999946590611885e-03 -6.670000023464965361e-04 1.200000135477844658e-04 -1.159999900603402419e-04 8.649999994534869618e-04 -3.999976626042928032e-04 -2.816899999279913469e-02 3.749500003034529627e-02 1.288000376222383407e-03 -3.560999883242968803e-03 1.936699999644742390e-02 3.763000140775827045e-03 -3.599996948554428852e-04 2.057099997958837870e-02 6.301000051879207704e-03 6.990004955009392930e-04 1.897599996452117507e-02 3.590002071146129476e-04 -1.169999951381870979e-03 2.149099999918705622e-02 -2.459998381652535120e-04 -6.409999980921056613e-04 2.053600000199816422e-02 -6.149998662027401485e-04 -2.470000256810300971e-04 2.085500000364143292e-02 1.880000589191832148e-04 7.070000345566187974e-04 2.036099999825606230e-02 6.639999616219263712e-04 2.031000071070040297e-03 2.087499999430609751e-02 1.050001088885395739e-04 -9.999723679627329729e-07 1.971299999942141556e-02 1.935000161493744897e-03 -5.899998325062293320e-04 2.117299998990841703e-02 6.649998872016705219e-04 2.891000069448576137e-03 1.917599999344154343e-02 -2.234400092562316767e-02 1.498199834766126767e-02 3.758600010837048755e-02 3.011699901782674896e-02 1.593400231809606951e-02 4.038499981784240966e-02 3.298000122862176225e-02 -1.618299750486400929e-02 8.509998341199841989e-04 2.651899921000835242e-02 1.317500204299576136e-02 3.739899984045875342e-02 2.751499894263636017e-02 1.379400207841137427e-02 -2.558000165657325475e-03 3.194300095960164732e-02 -1.550899762275022645e-02 -3.865100016082916728e-02 3.116499875445739171e-02 1.653000235785399147e-02 8.379998114622757080e-04 -2.332200119282017148e-02 1.559999823380072738e-02 -2.352999886848403457e-03 6.529996672997761186e-04 2.853000028227340671e-03 -2.118300000645426118e-02 1.930999943284963027e-03 -6.489998731034439658e-04 -1.916700001001056877e-02 1.009998861585018163e-04 -1.296218104056726871e-11 -2.062400000055750540e-02 7.089997438520140348e-04 1.967000034189695778e-03 -1.945400000587836631e-02 2.139998349459421197e-04 7.239999962253149341e-04 -1.998200000190443471e-02 -6.550000916460750437e-04 -2.110000690099243272e-04 -1.949399999617373175e-02 -2.080000643560759568e-04 -5.930000354928723072e-04 -1.978399999825953409e-02 3.299999813019419766e-04 -1.126999993849864658e-03 -1.882900000069581692e-02 6.254999830178746729e-03 6.850004517112715310e-04 -2.138000003521092762e-02 3.784999937026183470e-03 -6.049997334153500977e-04 -1.969800002028833374e-02 1.316000154322630308e-03 -3.571999921431003294e-03 -2.098400000369614327e-02 -4.019977910931801335e-04 -2.938700003287150059e-02 -2.470999968427035377e-03
-1.550006150940469582e-04 -1.230305388657588698e-10 -1.114329999991444248e-01 3.335999975841478019e-03 3.730002530357140315e-04 7.339999812131811716e-04 -1.714429999851661834e-01 -2.470129669744771739e-04 -6.969990534126943105e-04 3.587999975147540977e-03 3.840002721195108536e-04 7.589999798111899754e-04 -5.319999765191102707e-04 -2.650000396129960334e-04 6.230000032012653890e-04 1.000000169251945677e-04 -1.599999915639553985e-04 8.739999996078346356e-04 7.330001143699188450e-04 -1.561999945244250823e-03 -6.820000024858089652e-04 9.599998902958369528e-04 1.449000072584066563e-03 -2.100000674643327537e-05 1.999999917949403310e-04 4.200001421607455003e-05 -9.110000011459239849e-04 -1.260000135552815715e-04 1.549999901389599556e-04 -3.319999994593240359e-04 -2.310000181316533281e-04 2.049999820539444924e-04 -4.759999989296830655e-04 -1.300000121050425158e-04 1.339999898114670716e-04 -3.569999994162682648e-04 -5.609999799611106990e-04 -2.200000418132657212e-04 6.160000033163917687e-04 9.849998923930525403e-04 1.422000074484812068e-03 -1.100000685745999852e-05 7.150001171218553237e-04 -1.596999946586616587e-03 -6.630000023514909246e-04 1.210000133744445236e-04 -1.139999899887054921e-04 8.609999994459694404e-04 -3.979976651293383027e-04 -2.813699999266685084e-02 3.747600003030229082e-02 1.287000375925382136e-03 -3.556999883317600412e-03 1.936799999644894799e-02 3.754000140910528430e-03 -3.619996955391118214e-04 2.056799997964005658e-02 6.293000051938278314e-03 6.980004948929006926e-04 1.897299996456633386e-02 3.570002069357531508e-04 -1.167999951538125714e-03 2.148599999919609954e-02 -2.489998379604421567e-04 -6.439999983229920079e-04 2.053200000201772096e-02 -6.139998660144882579e-04 -2.500000256123919868e-04 2.084800000363891057e-02 1.920000589136633678e-04 7.070000348581409510e-04 2.035999999823398174e-02 6.649999619078878627e-04 2.027000071142674373e-03 2.087199999430457489e-02 1.040001087096797743e-04 1.000027551412619023e-06 1.970799999942493552e-02 1.931000161023403803e-03 -5.839998328117469500e-04 2.116999998992450532e-02 6.649998873474111463e-04 2.889000069447577538e-03 1.917499999344354430e-02 -2.231600092448096997e-02 1.496499834975294381e-02 3.756000010823291185e-02 3.006099901985278405e-02 1.590400231381682364e-02 4.034099981818149716e-02 3.292200122677845647e-02 -1.615599750921460978e-02 8.869998344131662434e-04 2.648299921099928761e-02 1.316000204024709956e-02 3.737299984067245923e-02 2.747899894378572419e-02 1.377800207567769601e-02 -2.569000165442628884e-03 3.188400095758113506e-02 -1.547899762716746161e-02 -3.860600016053346295e-02 3.111099875649610963e-02 1.650100235374198435e-02 8.099998117893153970e-04 -2.329700119153058427e-02 1.558199823567850070e-02 -2.365999886968420292e-03 6.509996675117549420e-04 2.851000028087067630e-03 -2.117200000644122240e-02 1.928999943021080963e-03 -6.449998732477123633e-04 -1.916000001000352573e-02 1.019998863058901948e-04 -1.000012873565380263e-06 -2.061100000056202697e-02 7.069997441876541390e-04 1.963000034044428636e-03 -1.944800000586333066e-02 2.129998350822907914e-04 7.229999961606722826e-04 -1.997100000189791502e-02 -6.530000916074360897e-04 -2.110000688516716844e-04 -1.948699999618477147e-02 -2.110000642086876078e-04 -5.940000357067777223e-04 -1.977099999824197957e-02 3.309999812649507033e-04 -1.125999993767242248e-03 -1.882200000070233595e-02 6.244999830455315835e-03 6.820004509639588730e-04 -2.137100003515273253e-02 3.779999937134932621e-03 -6.059997337875081555e-04 -1.969200002025973603e-02 1.311000153783827135e-03 -3.563999921797168097e-03 -2.097200000367653583e-02 -3.989977940979587238e-04 -2.934800003265460033e-02 -2.480999968482550892e-03
-1.500006139365250314e-04 -1.000122456607703259e-06 -1.112369999991710268e-01 3.320999975813879179e-03 3.730002518962657952e-04 7.289999812959790763e-04 -1.710149999851496017e-01 -2.470129346017302754e-04 -6.939990557751923471e-04 3.571999974946601930e-03 3.860002709004368526e-04 7.499999798975099221e-04 -5.299999763954490496e-04 -2.670000394667298364e-04 6.180000031922233466e-04 1.000000169031151428e-04 -1.599999915679509003e-04 8.699999996078346468e-04 7.290001140342788118e-04 -1.557999945552765008e-03 -6.880000024677251609e-04 9.659998909544297453e-04 1.440000073033852928e-03 -2.500000677056252234e-05 1.959999913466786345e-04 4.800001391455238642e-05 -9.100000011298377614e-04 -1.200000139499924229e-04 1.599999905897448588e-04 -3.349999994974376099e-04 -2.290000182569623037e-04 2.059999821962150979e-04 -4.849999989417216688e-04 -1.300000122027521979e-04 1.349999898074715670e-04 -3.609999994172671291e-04 -5.589999798429693681e-04 -2.220000416679984809e-04 6.100000033073498104e-04 9.899998928468340970e-04 1.416000074862963209e-03 -1.100000687906601669e-05 7.140001165869236084e-04 -1.589999946663245766e-03 -6.640000023529631871e-04 1.180000130829632153e-04 -1.099999902135985241e-04 8.629999994585335491e-04 -4.039976688661156123e-04 -2.808999999315359500e-02 3.744300003028845636e-02 1.283000375086281765e-03 -3.546999883635104656e-03 1.935299999646103788e-02 3.752000141108172149e-03 -3.659996957093510127e-04 2.054899997965509151e-02 6.279000052132049405e-03 6.950004938280837652e-04 1.896699996464661087e-02 3.560002069821363796e-04 -1.169999951632734762e-03 2.146699999920361618e-02 -2.489998381023106615e-04 -6.429999983349784891e-04 2.052000000201672017e-02 -6.139998660917662856e-04 -2.500000256263762433e-04 2.083400000363891044e-02 1.950000590301569797e-04 7.040000350650542490e-04 2.033999999822042049e-02 6.619999622623120705e-04 2.021000070897803046e-03 2.085399999432712564e-02 1.050001087836623261e-04 -9.999723869413938467e-07 1.969399999942141391e-02 1.928000161145417349e-03 -5.869998330576164285e-04 2.115099998994405747e-02 6.669998876648439070e-04 2.884000069587850084e-03 1.916399999343749647e-02 -2.227300092268182791e-02 1.493799835296109359e-02 3.751600010802252222e-02 2.998499902247504442e-02 1.586400230799600575e-02 4.026799981864095240e-02 3.283400122277500138e-02 -1.609999751582811764e-02 9.289998348429764474e-04 2.643699921215087942e-02 1.314200203673015176e-02 3.733499984094434954e-02 2.742199894556607981e-02 1.375300207134679160e-02 -2.589000165103025157e-03 3.180200095454208120e-02 -1.543399763330321854e-02 -3.854000016012578550e-02 3.102799875973610150e-02 1.645400234740774029e-02 7.529998122944105187e-04 -2.325100118975022626e-02 1.555699823913751258e-02 -2.385999887197361776e-03 6.469996683878466871e-04 2.840000027792537879e-03 -2.116400000640815404e-02 1.922999943362241077e-03 -6.489998736945017674e-04 -1.915300000996640953e-02 1.059998863721284447e-04 -1.000012559057827030e-06 -2.059900000058410494e-02 7.059997446745549989e-04 1.957000033974791702e-03 -1.944200000585181998e-02 2.149998353478205443e-04 7.199999963189250693e-04 -1.996400000190596061e-02 -6.540000914986866245e-04 -2.120000689213086590e-04 -1.948099999617824984e-02 -2.070000643047495577e-04 -5.920000353942678900e-04 -1.976099999826605447e-02 3.279999813847398458e-04 -1.126999993986141932e-03 -1.881400000068477948e-02 6.228999830565713249e-03 6.820004497738522660e-04 -2.135100003506441163e-02 3.773999936671758922e-03 -5.989997342293032403e-04 -1.968000002023360603e-02 1.310000153012612530e-03 -3.552999921861810673e-03 -2.096100000368200308e-02 -4.019977984381304108e-04 -2.929200003290047261e-02 -2.499999968521928601e-03
-1.640006132372334832e-04 7.999876734287886954e-06 -1.109869999991027339e-01 3.316999976370890117e-03 3.660002515987391359e-04 7.339999813250505612e-04 -1.704609999855205837e-01 -2.410128926875844185e-04 -6.789990588391855942e-04 3.544999975394863469e-03 3.800002688574210478e-04 7.489999800525392075e-04 -5.249999768011995565e-04 -2.620000390935730227e-04 6.130000031596298310e-04 1.010000168865555511e-04 -1.599999914953172694e-04 8.669999996023149006e-04 7.320001133072232078e-04 -1.546999945306895552e-03 -6.690000024952723248e-04 9.629998919762621391e-04 1.427000072813954402e-03 -1.800000674101756177e-05 1.969999919958795396e-04 4.000001399817368331e-05 -9.020000011273665618e-04 -1.220000136309118264e-04 1.559999904414809818e-04 -3.319999994824023633e-04 -2.280000183640639713e-04 2.079999822798363803e-04 -4.769999989492392238e-04 -1.290000119317025792e-04 1.319999898910928363e-04 -3.529999994197903610e-04 -5.519999798744407681e-04 -2.210000411305956521e-04 6.180000032677118987e-04 9.819998925884717775e-04 1.420000074265912252e-03 -3.000006838902679305e-06 7.140001169280836514e-04 -1.593999946656253627e-03 -6.570000023489677319e-04 1.320000130498440660e-04 -1.099999891607681752e-04 8.569999993812554839e-04 -3.999976746702847805e-04 -2.801799999291600465e-02 3.737800003019446649e-02 1.279000374518231070e-03 -3.539999883944618293e-03 1.934599999647612645e-02 3.740000141052973390e-03 -3.659996966269028545e-04 2.053899997972133060e-02 6.259000052740964180e-03 6.860004923024931285e-04 1.895399996476599541e-02 3.540002059807357626e-04 -1.157999951800975976e-03 2.144999999920266937e-02 -2.509998384876295486e-04 -6.389999985012221467e-04 2.050500000202376549e-02 -6.079998666338655997e-04 -2.440000251885767509e-04 2.081800000359979724e-02 1.920000581209462117e-04 7.150000348241792713e-04 2.032599999822599229e-02 6.629999628011156885e-04 2.013000070961447254e-03 2.084199999432959777e-02 1.020001089995133803e-04 -3.999972615829911983e-06 1.969199999944097265e-02 1.927000160970429588e-03 -5.859998331512265282e-04 2.113299998994857751e-02 6.619998883068774122e-04 2.875000069202706884e-03 1.915699999347408519e-02 -2.222300091985698542e-02 1.489699835669266309e-02 3.746600010778748657e-02 2.988099902666346147e-02 1.580300230005354800e-02 4.019099981927595072e-02 3.273000121918445693e-02 -1.604799752363173307e-02 9.909998353650997967e-04 2.637399921521201007e-02 1.309700203190351450e-02 3.727299984133704974e-02 2.736199894824296527e-02 1.371600206678700272e-02 -2.611000164734875520e-03 3.170400095099182997e-02 -1.538099764063207732e-02 -3.845700015963778029e-02 3.091099876401283766e-02 1.639300233849807012e-02 6.919998130011651956e-04 -2.317200118534488984e-02 1.549699824508833298e-02 -2.409999887573497247e-03 6.489996682012425314e-04 2.844000027964774767e-03 -2.114300000642319044e-02 1.928999942716335368e-03 -6.389998732207427968e-04 -1.913300001000951822e-02 9.399988615240528571e-05 2.999986548362223035e-06 -2.058400000052186540e-02 6.979997446392114399e-04 1.959000033390726186e-03 -1.942100000580965907e-02 2.139998342094945685e-04 7.359999962562800398e-04 -1.995100000191642187e-02 -6.510000918161195889e-04 -2.070000686834302440e-04 -1.946999999619980840e-02 -2.100000639785014063e-04 -5.950000356031789764e-04 -1.974299999824650001e-02 3.299999806946754609e-04 -1.116999993822895103e-03 -1.880200000070580621e-02 6.216999831329183407e-03 6.730004488812724173e-04 -2.133600003498918596e-02 3.763999937143748097e-03 -6.039997349686249432e-04 -1.966300002017341494e-02 1.299000153058419045e-03 -3.551999922671768544e-03 -2.093900000362228231e-02 -3.989978037189843255e-04 -2.922400003269855218e-02 -2.524999968606411217e-03
