-1.412881090500000028e+03
-1.412881092009999975e+03
-1.412881094759999996e+03
-1.412881098959999917e+03
-1.412881104979999918e+03
