-4.702365289699999948e+02
-4.702365295899999751e+02
-4.702365306899999950e+02
-4.702365323600000124e+02
-4.702365346000000272e+02
-4.702365373299999760e+02
