2.926559999999999828e+00 2.019740000000000091e+00 7.948459999999999859e+00 2.186110000000000220e+00 7.353100000000000191e-01 3.855640000000000178e+00 3.814700000000000202e+00 2.235160000000000036e+00 3.855599999999999916e+00 8.017199999999999882e-01 2.235160000000000036e+00 3.855589999999999851e+00 4.310920000000000307e+00 5.198899999999999633e-01 7.948439999999999728e+00 2.430349999999999788e+00 3.735030000000000072e+00 3.855649999999999800e+00 4.555180000000000007e+00 3.519610000000000127e+00 7.948459999999999859e+00 5.939540000000000042e+00 2.019730000000000025e+00 7.948470000000000368e+00 4.130349999999999966e+00 1.493570000000000064e+00 1.570617000000000019e+01 5.758919999999999817e+00 2.993430000000000035e+00 1.570612000000000030e+01 4.374570000000000292e+00 4.493290000000000006e+00 1.570617999999999981e+01 2.745960000000000178e+00 2.993419999999999970e+00 1.570611000000000068e+01 4.870779999999999887e+00 2.777989999999999959e+00 1.979899999999999949e+01 6.255150000000000432e+00 1.278149999999999897e+00 1.979898000000000025e+01 6.499399999999999622e+00 4.277870000000000061e+00 1.979897000000000062e+01 7.883759999999999657e+00 2.777989999999999959e+00 1.979899999999999949e+01 6.815019999999999634e+00 3.536280000000000090e+00 3.164952999999999861e+01 6.074559999999999960e+00 2.251850000000000129e+00 2.755670999999999893e+01 7.703159999999999563e+00 3.751689999999999969e+00 2.755664000000000158e+01 4.690170000000000172e+00 3.751700000000000035e+00 2.755665000000000120e+01 8.199379999999999669e+00 2.036420000000000119e+00 3.164950999999999937e+01 6.318810000000000038e+00 5.251579999999999693e+00 2.755669999999999931e+01 8.443630000000000635e+00 5.036139999999999617e+00 3.164950999999999937e+01 9.827989999999999782e+00 3.536270000000000024e+00 3.164951999999999899e+01 3.170809999999999906e+00 5.019459999999999589e+00 7.948470000000000368e+00 4.058950000000000280e+00 5.234869999999999912e+00 3.855599999999999916e+00 1.045960000000000001e+00 5.234869999999999912e+00 3.855589999999999851e+00 3.415049999999999919e+00 8.019159999999999400e+00 7.948470000000000368e+00 1.290200000000000014e+00 8.234590000000000742e+00 3.855589999999999851e+00 2.674599999999999866e+00 6.734740000000000393e+00 3.855640000000000178e+00 4.799419999999999575e+00 6.519319999999999560e+00 7.948450000000000237e+00 4.303189999999999849e+00 8.234579999999999345e+00 3.855599999999999916e+00 6.428020000000000067e+00 8.019180000000000419e+00 7.948459999999999859e+00 6.183779999999999610e+00 5.019440000000000346e+00 7.948479999999999990e+00 6.003160000000000274e+00 5.993140000000000356e+00 1.570612999999999992e+01 3.234430000000000138e+00 8.992860000000000298e+00 1.570612000000000030e+01 4.618809999999999860e+00 7.493019999999999570e+00 1.570617000000000019e+01 6.247410000000000352e+00 8.992860000000000298e+00 1.570611000000000068e+01 2.990200000000000191e+00 5.993140000000000356e+00 1.570611000000000068e+01 5.115029999999999966e+00 5.777720000000000411e+00 1.979899999999999949e+01 5.359270000000000422e+00 8.777440000000000353e+00 1.979898999999999987e+01 6.743629999999999569e+00 7.277590000000000003e+00 1.979898999999999987e+01 8.372249999999999304e+00 8.777440000000000353e+00 1.979899999999999949e+01 8.128009999999999735e+00 5.777720000000000411e+00 1.979899999999999949e+01 7.059249999999999581e+00 6.535980000000000345e+00 3.164952999999999861e+01 7.947390000000000398e+00 6.751409999999999911e+00 2.755664000000000158e+01 4.934429999999999872e+00 6.751409999999999911e+00 2.755665000000000120e+01 7.303490000000000038e+00 9.535709999999999908e+00 3.164951999999999899e+01 6.563060000000000116e+00 8.251289999999999125e+00 2.755670999999999893e+01 8.687870000000000203e+00 8.035869999999999180e+00 3.164949999999999974e+01 8.191629999999999967e+00 9.751129999999999853e+00 2.755665000000000120e+01 5.178659999999999819e+00 9.751120000000000232e+00 2.755665000000000120e+01 1.031647000000000070e+01 9.535709999999999908e+00 3.164953999999999823e+01 1.007222999999999935e+01 6.535980000000000345e+00 3.164952999999999861e+01 5.199099999999999611e+00 7.353100000000000191e-01 3.855640000000000178e+00 8.952529999999999433e+00 2.019730000000000025e+00 7.948470000000000368e+00 6.827689999999999593e+00 2.235149999999999970e+00 3.855579999999999785e+00 8.212059999999999249e+00 7.353199999999999736e-01 3.855640000000000178e+00 7.323909999999999698e+00 5.198899999999999633e-01 7.948450000000000237e+00 5.443340000000000067e+00 3.735020000000000007e+00 3.855649999999999800e+00 7.568159999999999776e+00 3.519610000000000127e+00 7.948459999999999859e+00 8.456300000000000594e+00 3.735030000000000072e+00 3.855649999999999800e+00 1.058112999999999992e+01 3.519589999999999996e+00 7.948450000000000237e+00 1.033689000000000036e+01 5.198800000000000088e-01 7.948450000000000237e+00 8.771900000000000475e+00 2.993419999999999970e+00 1.570612999999999992e+01 1.015629999999999988e+01 1.493579999999999908e+00 1.570617000000000019e+01 7.387570000000000192e+00 4.493290000000000006e+00 1.570617000000000019e+01 1.040052999999999983e+01 4.493290000000000006e+00 1.570617000000000019e+01 7.143320000000000114e+00 1.493579999999999908e+00 1.570617000000000019e+01 9.268129999999999313e+00 1.278149999999999897e+00 1.979898999999999987e+01 1.089672999999999981e+01 2.778000000000000025e+00 1.979899999999999949e+01 9.512359999999999260e+00 4.277879999999999683e+00 1.979898000000000025e+01 1.252533999999999992e+01 4.277870000000000061e+00 1.979898000000000025e+01 1.228110999999999997e+01 1.278149999999999897e+00 1.979898999999999987e+01 9.087540000000000617e+00 2.251840000000000064e+00 2.755670999999999893e+01 1.284097000000000044e+01 3.536270000000000024e+00 3.164951999999999899e+01 1.071612999999999971e+01 3.751689999999999969e+00 2.755665000000000120e+01 1.210050999999999988e+01 2.251850000000000129e+00 2.755670999999999893e+01 1.121236999999999995e+01 2.036420000000000119e+00 3.164951999999999899e+01 1.145659000000000027e+01 5.036139999999999617e+00 3.164950999999999937e+01 1.234476000000000084e+01 5.251570000000000071e+00 2.755670999999999893e+01 9.331789999999999807e+00 5.251579999999999693e+00 2.755669999999999931e+01 1.446958000000000055e+01 5.036139999999999617e+00 3.164950999999999937e+01 1.422533999999999921e+01 2.036430000000000184e+00 3.164949999999999974e+01 9.196749999999999758e+00 5.019459999999999589e+00 7.948470000000000368e+00 7.071909999999999918e+00 5.234880000000000422e+00 3.855589999999999851e+00 5.687570000000000014e+00 6.734750000000000014e+00 3.855640000000000178e+00 7.812380000000000102e+00 6.519309999999999938e+00 7.948450000000000237e+00 9.441000000000000725e+00 8.019180000000000419e+00 7.948459999999999859e+00 7.316159999999999997e+00 8.234600000000000364e+00 3.855589999999999851e+00 8.700559999999999405e+00 6.734759999999999636e+00 3.855649999999999800e+00 1.082535999999999987e+01 6.519330000000000069e+00 7.948459999999999859e+00 9.016149999999999665e+00 5.993140000000000356e+00 1.570612999999999992e+01 9.260379999999999612e+00 8.992869999999999919e+00 1.570612999999999992e+01 1.064476999999999940e+01 7.493030000000000079e+00 1.570616000000000057e+01 7.631789999999999630e+00 7.493030000000000079e+00 1.570617000000000019e+01 1.114099000000000039e+01 5.777709999999999901e+00 1.979899999999999949e+01 9.756610000000000227e+00 7.277599999999999625e+00 1.979898999999999987e+01 1.138522000000000034e+01 8.777430000000000732e+00 1.979899999999999949e+01 1.276960000000000051e+01 7.277590000000000003e+00 1.979898000000000025e+01 1.308521000000000001e+01 6.535980000000000345e+00 3.164952999999999861e+01 1.096036999999999928e+01 6.751409999999999911e+00 2.755666000000000082e+01 9.576029999999999376e+00 8.251300000000000523e+00 2.755669999999999931e+01 1.170083999999999946e+01 8.035859999999999559e+00 3.164951999999999899e+01 1.332945999999999920e+01 9.535709999999999908e+00 3.164951999999999899e+01 1.120462000000000025e+01 9.751129999999999853e+00 2.755666000000000082e+01 1.258900000000000041e+01 8.251289999999999125e+00 2.755669999999999931e+01 1.471382000000000012e+01 8.035869999999999180e+00 3.164950999999999937e+01 4.970710000000000406e+00 1.636130000000000084e+00 2.167199999999999793e+00 1.049790000000000001e+00 1.377529999999999921e+00 5.902000000000000135e+00 1.957729999999999970e+00 1.636120000000000019e+00 2.167190000000000172e+00 3.586349999999999927e+00 3.135969999999999924e+00 2.167170000000000041e+00 2.678440000000000154e+00 2.877400000000000180e+00 5.902120000000000033e+00 4.062759999999999927e+00 1.377529999999999921e+00 5.901989999999999625e+00 4.307010000000000005e+00 4.377250000000000085e+00 5.901989999999999625e+00 1.294030000000000014e+00 4.377250000000000085e+00 5.902000000000000135e+00 5.214940000000000353e+00 4.635849999999999582e+00 2.167190000000000172e+00 2.201970000000000205e+00 4.635839999999999961e+00 2.167199999999999793e+00 6.914939999999999642e+00 2.394400000000000084e+00 1.401773000000000025e+01 1.770599999999999952e+00 2.618819999999999926e+00 9.637040000000000717e+00 3.154990000000000183e+00 1.118980000000000086e+00 9.637140000000000484e+00 4.783570000000000100e+00 2.618809999999999860e+00 9.637050000000000338e+00 3.399230000000000196e+00 4.118710000000000093e+00 9.637140000000000484e+00 2.994029999999999969e+00 2.135800000000000143e+00 1.775252000000000052e+01 3.901949999999999807e+00 2.394400000000000084e+00 1.401772000000000062e+01 5.530569999999999986e+00 3.894249999999999989e+00 1.401769999999999960e+01 4.622670000000000279e+00 3.635670000000000179e+00 1.775265999999999877e+01 6.006990000000000052e+00 2.135800000000000143e+00 1.775252000000000052e+01 3.238249999999999851e+00 5.135530000000000150e+00 1.775253000000000014e+01 6.251229999999999620e+00 5.135519999999999641e+00 1.775253000000000014e+01 7.159180000000000099e+00 5.394120000000000026e+00 1.401772000000000062e+01 4.146200000000000330e+00 5.394120000000000026e+00 1.401772000000000062e+01 8.859170000000000655e+00 3.152670000000000083e+00 2.586824999999999974e+01 3.714830000000000076e+00 3.377099999999999991e+00 2.148757000000000161e+01 5.099230000000000373e+00 1.877250000000000085e+00 2.148767000000000138e+01 6.727800000000000225e+00 3.377099999999999991e+00 2.148757000000000161e+01 5.343460000000000321e+00 4.876970000000000027e+00 2.148766000000000176e+01 5.846189999999999998e+00 3.152670000000000083e+00 2.586824999999999974e+01 7.474809999999999732e+00 4.652510000000000367e+00 2.586823000000000050e+01 9.103400000000000603e+00 6.152389999999999581e+00 2.586825999999999937e+01 6.090419999999999945e+00 6.152389999999999581e+00 2.586824999999999974e+01 8.195460000000000633e+00 5.893790000000000084e+00 2.960304999999999964e+01 4.938240000000000407e+00 2.894080000000000208e+00 2.960304999999999964e+01 5.659069999999999823e+00 4.135369999999999990e+00 3.333809000000000111e+01 6.566900000000000404e+00 4.393939999999999735e+00 2.960317999999999827e+01 7.043449999999999989e+00 2.635530000000000150e+00 3.333820999999999657e+01 7.951229999999999798e+00 2.894080000000000208e+00 2.960304999999999964e+01 8.672029999999999461e+00 4.135369999999999990e+00 3.333811000000000035e+01 5.182479999999999976e+00 5.893790000000000084e+00 2.960305999999999926e+01 7.287679999999999936e+00 5.635250000000000092e+00 3.333820000000000050e+01 4.551249999999999574e+00 7.376970000000000027e+00 5.901989999999999625e+00 5.459190000000000431e+00 7.635559999999999903e+00 2.167209999999999859e+00 3.166910000000000114e+00 8.876839999999999620e+00 5.902129999999999654e+00 2.922680000000000167e+00 5.877119999999999678e+00 5.902120000000000033e+00 1.538280000000000092e+00 7.376970000000000027e+00 5.902000000000000135e+00 2.446210000000000218e+00 7.635580000000000034e+00 2.167190000000000172e+00 3.830579999999999874e+00 6.135699999999999932e+00 2.167170000000000041e+00 4.074830000000000396e+00 9.135410000000000252e+00 2.167159999999999975e+00 7.403410000000000046e+00 8.393850000000000477e+00 1.401773000000000025e+01 2.014839999999999964e+00 5.618540000000000312e+00 9.637050000000000338e+00 5.027829999999999799e+00 5.618540000000000312e+00 9.637050000000000338e+00 2.259090000000000042e+00 8.618259999999999366e+00 9.637040000000000717e+00 3.643460000000000143e+00 7.118430000000000035e+00 9.637150000000000105e+00 5.272050000000000125e+00 8.618259999999999366e+00 9.637040000000000717e+00 4.866889999999999716e+00 6.635390000000000121e+00 1.775265999999999877e+01 3.482509999999999994e+00 8.135239999999999583e+00 1.775253000000000014e+01 4.390430000000000277e+00 8.393840000000000856e+00 1.401772000000000062e+01 5.774810000000000443e+00 6.893959999999999866e+00 1.401768999999999998e+01 5.111139999999999795e+00 9.635120000000000573e+00 1.775264999999999915e+01 6.495479999999999698e+00 8.135239999999999583e+00 1.775252000000000052e+01 6.019050000000000011e+00 9.893689999999999429e+00 1.401768999999999998e+01 9.347640000000000171e+00 9.152110000000000412e+00 2.586824999999999974e+01 7.719039999999999679e+00 7.652239999999999931e+00 2.586822000000000088e+01 3.959080000000000155e+00 6.376800000000000246e+00 2.148757000000000161e+01 6.972059999999999924e+00 6.376809999999999867e+00 2.148755999999999844e+01 4.203319999999999723e+00 9.376530000000000697e+00 2.148755999999999844e+01 5.587699999999999889e+00 7.876699999999999591e+00 2.148768000000000100e+01 7.216300000000000381e+00 9.376519999999999300e+00 2.148757000000000161e+01 6.334660000000000402e+00 9.152110000000000412e+00 2.586824999999999974e+01 7.963280000000000136e+00 1.065196000000000076e+01 2.586821000000000126e+01 7.531930000000000014e+00 8.634969999999999146e+00 3.333820000000000050e+01 9.160510000000000375e+00 1.013480000000000025e+01 3.333809000000000111e+01 8.439700000000000202e+00 8.893520000000000536e+00 2.960304999999999964e+01 5.903299999999999770e+00 7.135080000000000311e+00 3.333809999999999718e+01 6.811130000000000351e+00 7.393659999999999677e+00 2.960316999999999865e+01 8.916270000000000806e+00 7.135080000000000311e+00 3.333809999999999718e+01 5.426730000000000054e+00 8.893520000000000536e+00 2.960304999999999964e+01 6.147549999999999848e+00 1.013480999999999987e+01 3.333809999999999718e+01 7.055369999999999919e+00 1.039338000000000051e+01 2.960319000000000145e+01 9.612299999999999400e+00 3.135979999999999990e+00 2.167170000000000041e+00 7.319989999999999775e+00 4.377250000000000085e+00 5.901989999999999625e+00 6.599330000000000140e+00 3.135969999999999924e+00 2.167159999999999975e+00 5.691410000000000302e+00 2.877409999999999801e+00 5.902120000000000033e+00 7.075739999999999696e+00 1.377529999999999921e+00 5.902000000000000135e+00 7.983679999999999666e+00 1.636120000000000019e+00 2.167190000000000172e+00 8.704390000000000072e+00 2.877409999999999801e+00 5.902110000000000412e+00 8.227919999999999234e+00 4.635860000000000092e+00 2.167199999999999793e+00 1.155652000000000079e+01 3.894239999999999924e+00 1.401769999999999960e+01 6.167970000000000397e+00 1.118980000000000086e+00 9.637140000000000484e+00 7.796570000000000000e+00 2.618809999999999860e+00 9.637050000000000338e+00 9.180949999999999278e+00 1.118980000000000086e+00 9.637140000000000484e+00 6.412209999999999965e+00 4.118710000000000093e+00 9.637140000000000484e+00 9.425179999999999225e+00 4.118699999999999584e+00 9.637140000000000484e+00 8.543559999999999377e+00 3.894239999999999924e+00 1.401769999999999960e+01 7.635650000000000048e+00 3.635689999999999866e+00 1.775263999999999953e+01 9.019970000000000709e+00 2.135800000000000143e+00 1.775252000000000052e+01 9.927899999999999281e+00 2.394410000000000149e+00 1.401773000000000025e+01 1.064860999999999969e+01 3.635670000000000179e+00 1.775265999999999877e+01 9.264219999999999899e+00 5.135519999999999641e+00 1.775252000000000052e+01 1.017214000000000063e+01 5.394120000000000026e+00 1.401772000000000062e+01 1.350075999999999965e+01 4.652510000000000367e+00 2.586822000000000088e+01 1.187213000000000029e+01 3.152680000000000149e+00 2.586825999999999937e+01 8.112190000000000012e+00 1.877250000000000085e+00 2.148768000000000100e+01 9.740790000000000504e+00 3.377089999999999925e+00 2.148755999999999844e+01 1.112518000000000029e+01 1.877250000000000085e+00 2.148768000000000100e+01 8.356429999999999580e+00 4.876979999999999649e+00 2.148766000000000176e+01 1.136941000000000024e+01 4.876979999999999649e+00 2.148767000000000138e+01 1.048778000000000077e+01 4.652510000000000367e+00 2.586821000000000126e+01 1.211637999999999948e+01 6.152389999999999581e+00 2.586825999999999937e+01 1.331362999999999985e+01 5.635239999999999583e+00 3.333820000000000050e+01 1.120843999999999951e+01 5.893790000000000084e+00 2.960304999999999964e+01 1.030067000000000021e+01 5.635239999999999583e+00 3.333820000000000050e+01 9.579860000000000042e+00 4.393950000000000244e+00 2.960317999999999827e+01 1.005643000000000065e+01 2.635530000000000150e+00 3.333820000000000050e+01 1.096419999999999995e+01 2.894080000000000208e+00 2.960304999999999964e+01 1.168501000000000012e+01 4.135369999999999990e+00 3.333809999999999718e+01 1.259285000000000032e+01 4.393939999999999735e+00 2.960319000000000145e+01 1.306939999999999991e+01 2.635530000000000150e+00 3.333820000000000050e+01 9.856529999999999347e+00 6.135679999999999801e+00 2.167159999999999975e+00 9.192859999999999587e+00 8.876849999999999241e+00 5.902120000000000033e+00 5.935649999999999871e+00 5.877130000000000187e+00 5.902120000000000033e+00 8.472149999999999181e+00 7.635580000000000034e+00 2.167190000000000172e+00 8.948639999999999262e+00 5.877130000000000187e+00 5.902110000000000412e+00 6.843569999999999709e+00 6.135690000000000310e+00 2.167159999999999975e+00 6.179899999999999949e+00 8.876849999999999241e+00 5.902129999999999654e+00 7.564230000000000231e+00 7.376970000000000027e+00 5.901989999999999625e+00 1.010078999999999994e+01 9.135410000000000252e+00 2.167159999999999975e+00 7.087799999999999656e+00 9.135410000000000252e+00 2.167159999999999975e+00 1.180076999999999998e+01 6.893959999999999866e+00 1.401768999999999998e+01 8.040800000000000836e+00 5.618529999999999802e+00 9.637050000000000338e+00 6.656460000000000043e+00 7.118420000000000414e+00 9.637130000000000862e+00 8.285030000000000783e+00 8.618259999999999366e+00 9.637050000000000338e+00 9.669420000000000570e+00 7.118420000000000414e+00 9.637140000000000484e+00 1.113710000000000022e+01 9.635109999999999175e+00 1.775265999999999877e+01 7.879879999999999995e+00 6.635399999999999743e+00 1.775265999999999877e+01 1.089286000000000065e+01 6.635410000000000252e+00 1.775264999999999915e+01 8.787779999999999703e+00 6.893950000000000244e+00 1.401769999999999960e+01 8.124129999999999185e+00 9.635109999999999175e+00 1.775264999999999915e+01 9.508459999999999468e+00 8.135239999999999583e+00 1.775253000000000014e+01 1.041638000000000019e+01 8.393850000000000477e+00 1.401772000000000062e+01 1.204500999999999955e+01 9.893689999999999429e+00 1.401769999999999960e+01 9.032040000000000290e+00 9.893679999999999808e+00 1.401768999999999998e+01 1.374499999999999922e+01 7.652219999999999800e+00 2.586823000000000050e+01 9.985020000000000451e+00 6.376820000000000377e+00 2.148755999999999844e+01 8.600680000000000547e+00 7.876699999999999591e+00 2.148766000000000176e+01 1.022926999999999964e+01 9.376519999999999300e+00 2.148757000000000161e+01 1.161364999999999981e+01 7.876699999999999591e+00 2.148768000000000100e+01 1.073202000000000034e+01 7.652219999999999800e+00 2.586823000000000050e+01 1.236062000000000083e+01 9.152110000000000412e+00 2.586824999999999974e+01 1.398925000000000018e+01 1.065194999999999936e+01 2.586822000000000088e+01 1.097625999999999991e+01 1.065194999999999936e+01 2.586822000000000088e+01 1.355786999999999942e+01 8.634959999999999525e+00 3.333818999999999733e+01 9.824109999999999232e+00 7.393659999999999677e+00 2.960317999999999827e+01 1.192925999999999931e+01 7.135080000000000311e+00 3.333809000000000111e+01 1.283708000000000027e+01 7.393670000000000186e+00 2.960317999999999827e+01 1.006835000000000058e+01 1.039338000000000051e+01 2.960319000000000145e+01 1.054490999999999978e+01 8.634959999999999525e+00 3.333820000000000050e+01 1.145268000000000086e+01 8.893520000000000536e+00 2.960305999999999926e+01 1.217348999999999926e+01 1.013480000000000025e+01 3.333809999999999718e+01 1.308131999999999984e+01 1.039338000000000051e+01 2.960317999999999827e+01