-2.015689657899999929e+03
-2.015497215880000113e+03
-2.015383085830000027e+03
-2.015349000769999975e+03
-2.015395731880000085e+03
-2.015523353560000032e+03
-2.015730968759999996e+03
-2.016016895649999924e+03
-2.016378579859999945e+03
-2.016812643270000081e+03
