4.498449999999999949e-01 8.254120000000000346e-01 -2.535823000000000160e+00 -4.492120000000000002e-01 -8.270229999999999526e-01 2.539178000000000157e+00 -4.496510000000000229e-01 -8.269370000000000331e-01 2.539460000000000051e+00 -4.497430000000000039e-01 -8.281239999999999712e-01 2.539744999999999919e+00 4.482400000000000273e-01 8.262939999999999729e-01 -2.536751999999999896e+00 -4.487419999999999742e-01 -8.270110000000000516e-01 2.538517000000000134e+00 4.482160000000000033e-01 8.264500000000000179e-01 -2.537059999999999871e+00 4.493920000000000137e-01 8.252979999999999761e-01 -2.536058000000000145e+00 -4.493179999999999952e-01 -8.269170000000000131e-01 2.539114000000000093e+00 -4.497689999999999744e-01 -8.269560000000000244e-01 2.539632999999999807e+00 -4.488590000000000080e-01 -8.267630000000000257e-01 2.538377999999999801e+00 -4.498369999999999869e-01 -8.281990000000000185e-01 2.540404000000000106e+00 4.500850000000000128e-01 8.256310000000000038e-01 -2.536534000000000066e+00 4.483380000000000143e-01 8.267809999999999881e-01 -2.537198000000000064e+00 4.484110000000000040e-01 8.266069999999999807e-01 -2.537341000000000069e+00 4.495069999999999899e-01 8.255959999999999965e-01 -2.536337000000000064e+00 4.501390000000000113e-01 8.256050000000000333e-01 -2.536459999999999937e+00 -4.492249999999999854e-01 -8.270300000000000429e-01 2.539371000000000045e+00 -4.494090000000000029e-01 -8.272549999999999626e-01 2.540221999999999980e+00 -4.497729999999999784e-01 -8.282089999999999730e-01 2.540516000000000219e+00 4.484079999999999733e-01 8.266580000000000039e-01 -2.536935999999999858e+00 -4.487940000000000262e-01 -8.270089999999999941e-01 2.539496000000000198e+00 4.484179999999999833e-01 8.264230000000000187e-01 -2.537456999999999852e+00 4.493199999999999972e-01 8.255940000000000500e-01 -2.535925000000000207e+00 4.504029999999999978e-01 8.255390000000000228e-01 -2.536519000000000190e+00 -4.500779999999999781e-01 -8.270640000000000214e-01 2.539572999999999858e+00 -4.498500000000000276e-01 -8.261429999999999607e-01 2.538364000000000065e+00 4.498699999999999921e-01 8.254599999999999715e-01 -2.536392000000000202e+00 -4.496330000000000049e-01 -8.273829999999999796e-01 2.539581999999999784e+00 -4.490379999999999927e-01 -8.271709999999999896e-01 2.538708000000000187e+00 4.476800000000000224e-01 8.268219999999999459e-01 -2.536394000000000037e+00 -4.500689999999999968e-01 -8.268240000000000034e-01 2.539692000000000061e+00 4.495040000000000147e-01 8.249180000000000401e-01 -2.536280000000000090e+00 4.495259999999999811e-01 8.257360000000000255e-01 -2.536763999999999797e+00 -4.500899999999999901e-01 -8.269269999999999676e-01 2.539518000000000164e+00 -4.496829999999999994e-01 -8.271429999999999616e-01 2.539318000000000186e+00 -4.490569999999999840e-01 -8.273030000000000106e-01 2.538564000000000043e+00 -4.501950000000000118e-01 -8.268499999999999739e-01 2.539991999999999805e+00 -4.498389999999999889e-01 -8.261760000000000215e-01 2.538699999999999957e+00 4.505500000000000060e-01 8.257060000000000510e-01 -2.536649999999999849e+00 4.500520000000000076e-01 8.255130000000000523e-01 -2.536497999999999919e+00 4.478289999999999771e-01 8.270370000000000221e-01 -2.537211999999999801e+00 4.498170000000000224e-01 8.253019999999999801e-01 -2.537142999999999926e+00 4.496580000000000021e-01 8.255139999999999700e-01 -2.536747000000000085e+00 4.504779999999999895e-01 8.256930000000000103e-01 -2.536757000000000151e+00 -4.497320000000000206e-01 -8.271819999999999729e-01 2.540039999999999853e+00 -4.497530000000000139e-01 -8.264280000000000515e-01 2.539204999999999934e+00 4.499600000000000266e-01 8.254179999999999851e-01 -2.535876000000000019e+00 -4.489139999999999797e-01 -8.269199999999999884e-01 2.538746000000000169e+00 4.479170000000000096e-01 8.267989999999999506e-01 -2.536306999999999867e+00 -4.499540000000000206e-01 -8.269009999999999971e-01 2.539950000000000152e+00 -4.496589999999999754e-01 -8.270859999999999879e-01 2.539445999999999870e+00 4.496760000000000201e-01 8.250800000000000356e-01 -2.536426000000000069e+00 4.495069999999999899e-01 8.256369999999999543e-01 -2.536455000000000126e+00 -4.487320000000000197e-01 -8.262080000000000535e-01 2.538057999999999925e+00 4.489609999999999990e-01 8.258130000000000193e-01 -2.536599999999999966e+00 -4.498590000000000089e-01 -8.275730000000000031e-01 2.539677999999999880e+00 -4.489839999999999942e-01 -8.268900000000000139e-01 2.538917999999999786e+00 4.491439999999999877e-01 8.262040000000000495e-01 -2.536074999999999857e+00 -4.487229999999999830e-01 -8.269499999999999629e-01 2.538729000000000013e+00 4.487119999999999997e-01 8.264599999999999724e-01 -2.536388999999999783e+00 -4.489790000000000170e-01 -8.267259999999999609e-01 2.538803000000000143e+00 4.484339999999999993e-01 8.259609999999999452e-01 -2.536887000000000114e+00 4.482709999999999750e-01 8.266179999999999639e-01 -2.536610000000000031e+00 -4.500210000000000043e-01 -8.273880000000000123e-01 2.539458000000000215e+00 -4.490410000000000235e-01 -8.269729999999999581e-01 2.539114999999999789e+00 -4.488030000000000075e-01 -8.269410000000000371e-01 2.538711999999999858e+00 -4.492090000000000249e-01 -8.267269999999999897e-01 2.539245000000000196e+00 -4.487840000000000162e-01 -8.262979999999999769e-01 2.537850999999999857e+00 4.493159999999999932e-01 8.267889999999999961e-01 -2.536818999999999935e+00 4.492709999999999759e-01 8.257940000000000280e-01 -2.536852999999999803e+00 4.487459999999999782e-01 8.266189999999999927e-01 -2.536328000000000138e+00 4.483619999999999828e-01 8.264420000000000099e-01 -2.537002999999999897e+00 4.482979999999999743e-01 8.269429999999999836e-01 -2.537155999999999967e+00 -4.488369999999999860e-01 -8.257510000000000128e-01 2.537882000000000193e+00 4.489310000000000245e-01 8.257440000000000335e-01 -2.536143000000000036e+00 -4.499420000000000086e-01 -8.271039999999999504e-01 2.539344999999999963e+00 -4.487959999999999727e-01 -8.266940000000000399e-01 2.538784000000000152e+00 4.492970000000000019e-01 8.265559999999999574e-01 -2.536451000000000011e+00 4.487189999999999790e-01 8.264519999999999644e-01 -2.536147999999999847e+00 -4.490000000000000102e-01 -8.268330000000000402e-01 2.539492999999999778e+00 -4.485000000000000098e-01 -8.269600000000000284e-01 2.538978999999999875e+00 4.484179999999999833e-01 8.262570000000000192e-01 -2.537290000000000045e+00 4.481999999999999873e-01 8.265709999999999447e-01 -2.536423999999999790e+00 4.492039999999999922e-01 8.256280000000000285e-01 -2.536792000000000158e+00 -4.501390000000000113e-01 -8.272899999999999698e-01 2.539855999999999892e+00 -4.487650000000000250e-01 -8.282049999999999690e-01 2.539502999999999844e+00 4.488949999999999885e-01 8.263599999999999834e-01 -2.536023999999999834e+00 4.494060000000000277e-01 8.252570000000000183e-01 -2.536526999999999976e+00 -4.498130000000000184e-01 -8.270979999999999999e-01 2.539452999999999960e+00 -4.484580000000000233e-01 -8.268370000000000442e-01 2.538451999999999931e+00 4.482510000000000105e-01 8.265439999999999454e-01 -2.536481000000000208e+00 -4.503190000000000248e-01 -8.271249999999999991e-01 2.539899000000000129e+00 -4.498599999999999821e-01 -8.270009999999999861e-01 2.539305999999999841e+00 -4.486669999999999825e-01 -8.268799999999999484e-01 2.538856000000000002e+00 -4.489270000000000205e-01 -8.279309999999999725e-01 2.539412000000000003e+00 4.496450000000000169e-01 8.255120000000000235e-01 -2.536897000000000180e+00 4.487979999999999747e-01 8.267689999999999761e-01 -2.536553000000000058e+00 4.496519999999999961e-01 8.255839999999999845e-01 -2.537249999999999783e+00 4.483550000000000035e-01 8.264259999999999939e-01 -2.536128000000000160e+00 4.493400000000000172e-01 8.257489999999999553e-01 -2.536853999999999942e+00 -4.503090000000000148e-01 -8.271089999999999831e-01 2.539976999999999929e+00 -4.486829999999999985e-01 -8.278450000000000530e-01 2.539674999999999905e+00 4.487709999999999755e-01 8.266440000000000454e-01 -2.536150999999999822e+00 4.493070000000000119e-01 8.256499999999999950e-01 -2.536865000000000148e+00 -4.496780000000000221e-01 -8.270619999999999639e-01 2.539251999999999843e+00 -4.487269999999999870e-01 -8.265360000000000484e-01 2.539079000000000086e+00 4.483590000000000075e-01 8.266170000000000462e-01 -2.536261000000000099e+00 2.331370000000000109e-01 1.293371000000000048e+00 -2.268301999999999818e+00 7.839999999999999747e-04 -1.479999999999999925e-04 -7.420000000000000380e-04 2.327740000000000087e-01 1.295036000000000076e+00 -2.267835999999999963e+00 2.312559999999999893e-01 1.295095000000000107e+00 -2.267147000000000023e+00 -1.203999999999999992e-03 1.835000000000000043e-03 1.450000000000000009e-04 -2.390000000000000089e-04 -5.280000000000000405e-04 -1.018999999999999941e-03 -5.869999999999999567e-04 3.980000000000000248e-04 -1.204999999999999908e-03 1.111999999999999924e-03 6.710000000000000469e-04 -9.510000000000000224e-04 2.328159999999999952e-01 1.295336999999999961e+00 -2.267916000000000043e+00 2.330129999999999979e-01 1.294974000000000069e+00 -2.267745999999999817e+00 2.352589999999999959e-01 1.292569000000000079e+00 -2.268470999999999904e+00 -2.334410000000000096e-01 -1.293079000000000089e+00 2.266310999999999964e+00 -2.334579999999999989e-01 -1.293274999999999952e+00 2.265786999999999995e+00 -2.329670000000000074e-01 -1.293137999999999899e+00 2.266039999999999832e+00 -2.338840000000000086e-01 -1.292906000000000111e+00 2.265591999999999828e+00 -8.409999999999999507e-04 -7.200000000000000182e-05 -2.889999999999999774e-04 2.328629999999999867e-01 1.293749999999999956e+00 -2.268190000000000150e+00 2.333570000000000089e-01 1.294618000000000047e+00 -2.267599999999999838e+00 -1.283000000000000069e-03 3.460000000000000076e-04 1.204999999999999908e-03 1.626999999999999974e-03 -1.152999999999999945e-03 -4.600000000000000139e-04 -6.019999999999999961e-04 -1.660000000000000017e-03 7.899999999999999579e-05 1.848000000000000033e-03 1.140000000000000063e-04 -3.249999999999999851e-04 2.343179999999999985e-01 1.295152999999999999e+00 -2.268158999999999814e+00 2.329890000000000017e-01 1.295107000000000008e+00 -2.268116000000000021e+00 2.352710000000000079e-01 1.293225999999999987e+00 -2.268972000000000211e+00 -2.347519999999999885e-01 -1.293420999999999932e+00 2.267259000000000135e+00 -2.326469999999999927e-01 -1.293164999999999898e+00 2.267103000000000090e+00 -2.305149999999999977e-01 -1.293447999999999931e+00 2.267395000000000049e+00 -2.322470000000000090e-01 -1.293250999999999928e+00 2.266471999999999820e+00 2.335480000000000056e-01 1.294175999999999993e+00 -2.268610999999999933e+00 2.342670000000000030e-01 1.294505000000000017e+00 -2.268479000000000134e+00 2.347609999999999975e-01 1.294356999999999980e+00 -2.269022999999999790e+00 2.343300000000000105e-01 1.294515000000000082e+00 -2.269352000000000036e+00 1.430000000000000064e-03 -1.590999999999999966e-03 -5.760000000000000146e-04 9.740000000000000394e-04 -4.600000000000000139e-04 -5.199999999999999544e-04 -2.339420000000000111e-01 -1.294424000000000019e+00 2.266366999999999798e+00 -6.999999999999999387e-05 -7.010000000000000172e-04 8.989999999999999511e-04 -2.318840000000000068e-01 -1.294160999999999895e+00 2.265693000000000179e+00 9.990000000000001049e-04 -4.620000000000000083e-04 -5.450000000000000200e-04 -2.311130000000000129e-01 -1.294627999999999890e+00 2.266542999999999974e+00 4.380000000000000213e-04 -2.023000000000000059e-03 -2.700000000000000035e-04 -2.322120000000000017e-01 -1.293635000000000090e+00 2.265489999999999782e+00 -1.028999999999999967e-03 -1.763000000000000027e-03 3.199999999999999855e-05 2.335170000000000023e-01 1.292820999999999998e+00 -2.268397000000000219e+00 -8.080000000000000160e-04 -9.550000000000000112e-04 5.190000000000000386e-04 -1.332000000000000068e-03 1.399999999999999986e-03 5.860000000000000408e-04 1.294000000000000011e-03 -2.296999999999999997e-03 -8.809999999999999472e-04 2.330629999999999924e-01 1.292397000000000018e+00 -2.267706000000000000e+00 2.313469999999999971e-01 1.294413000000000036e+00 -2.268013999999999974e+00 2.319299999999999973e-01 1.293773999999999980e+00 -2.267482999999999915e+00 2.355119999999999991e-01 1.293409000000000031e+00 -2.268920000000000048e+00 -2.328759999999999997e-01 -1.292783999999999933e+00 2.266500999999999877e+00 -2.332750000000000101e-01 -1.292327999999999921e+00 2.266262000000000221e+00 -2.340099999999999958e-01 -1.294523000000000090e+00 2.266268999999999867e+00 -2.338510000000000033e-01 -1.293455000000000021e+00 2.265395999999999965e+00 -2.330520000000000092e-01 -1.294683000000000028e+00 2.266181000000000001e+00 8.159999999999999936e-04 1.000000000000000021e-03 1.054999999999999948e-03 -6.799999999999999946e-05 -2.280000000000000126e-04 -6.269999999999999532e-04 2.330419999999999991e-01 1.293714999999999948e+00 -2.268432999999999922e+00 2.329859999999999987e-01 1.295582999999999929e+00 -2.268406000000000144e+00 -1.369999999999999961e-04 2.829999999999999942e-04 7.110000000000000434e-04 1.147000000000000016e-03 -1.193000000000000050e-03 1.640000000000000019e-04 2.335019999999999873e-01 1.293527000000000093e+00 -2.268308999999999909e+00 2.351350000000000107e-01 1.293867000000000100e+00 -2.269118999999999886e+00 2.339819999999999955e-01 1.294998000000000093e+00 -2.269026999999999905e+00 -2.339710000000000123e-01 -1.293617999999999935e+00 2.267784999999999940e+00 -2.314740000000000131e-01 -1.294154999999999944e+00 2.267520000000000202e+00 -2.342629999999999990e-01 -1.294105000000000061e+00 2.267332999999999821e+00 -2.329789999999999917e-01 -1.293908000000000058e+00 2.266691999999999929e+00 -2.321219999999999950e-01 -1.293911000000000033e+00 2.267376000000000058e+00 2.335889999999999911e-01 1.294546999999999892e+00 -2.268761000000000028e+00 2.341260000000000008e-01 1.294383000000000061e+00 -2.268603000000000147e+00 -2.326529999999999987e-01 -1.292084999999999928e+00 2.265347999999999917e+00 -2.320649999999999935e-01 -1.294145000000000101e+00 2.266183999999999976e+00 1.768000000000000040e-03 -6.539999999999999590e-04 -6.000000000000000152e-06 -2.335019999999999873e-01 -1.292540999999999940e+00 2.267142000000000213e+00 6.669999999999999497e-04 7.590000000000000175e-04 1.079000000000000098e-03 -2.313729999999999953e-01 -1.292383999999999977e+00 2.265896999999999828e+00 3.980000000000000248e-04 -2.900000000000000017e-05 -6.669999999999999497e-04 -2.334809999999999941e-01 -1.294605999999999923e+00 2.265972999999999793e+00 1.890000000000000133e-04 1.856999999999999927e-03 5.429999999999999714e-04 2.341779999999999973e-01 1.294507999999999992e+00 -2.268181999999999920e+00 1.113999999999999973e-03 -2.190000000000000106e-04 -1.159000000000000091e-03 2.333060000000000134e-01 1.295155999999999974e+00 -2.267729000000000106e+00 -8.369999999999999619e-04 7.640000000000000306e-04 2.629999999999999959e-04 9.770000000000000039e-04 5.829999999999999679e-04 -7.540000000000000044e-04 2.349360000000000059e-01 1.293984999999999941e+00 -2.268332000000000015e+00 4.650000000000000270e-04 8.379999999999999862e-04 9.810000000000001011e-04 2.349519999999999942e-01 1.294262999999999941e+00 -2.267479999999999940e+00 2.331479999999999941e-01 1.294399000000000077e+00 -2.268581999999999876e+00 -2.330619999999999914e-01 -1.293355000000000032e+00 2.265909999999999869e+00 -2.329400000000000082e-01 -1.293085999999999958e+00 2.266118000000000077e+00 -2.322680000000000022e-01 -1.293941000000000008e+00 2.265925999999999885e+00 -2.334229999999999916e-01 -1.293331000000000008e+00 2.265658999999999867e+00 -2.324080000000000035e-01 -1.292629000000000028e+00 2.265747999999999873e+00 2.332710000000000061e-01 1.294440000000000035e+00 -2.268076000000000203e+00 7.489999999999999913e-04 2.390000000000000089e-04 1.234000000000000071e-03 9.060000000000000128e-04 -4.399999999999999886e-05 7.600000000000000418e-05 2.337319999999999953e-01 1.292750000000000066e+00 -2.268304999999999794e+00 -1.217999999999999899e-03 -3.330000000000000169e-04 2.003000000000000006e-03 2.349999999999999930e-04 -1.041000000000000042e-03 -1.379999999999999933e-04 2.341489999999999960e-01 1.294799000000000033e+00 -2.268448999999999938e+00 2.325750000000000040e-01 1.293624000000000107e+00 -2.268991999999999898e+00 2.330389999999999961e-01 1.293077000000000032e+00 -2.268705999999999889e+00 -2.319150000000000100e-01 -1.292540999999999940e+00 2.267246999999999790e+00 -2.340869999999999895e-01 -1.292753999999999959e+00 2.267389000000000099e+00 -2.344920000000000060e-01 -1.292508999999999908e+00 2.266896000000000022e+00 -2.323159999999999947e-01 -1.294025999999999899e+00 2.266741000000000117e+00 -2.347770000000000135e-01 -1.293790999999999913e+00 2.267050999999999927e+00 2.322790000000000132e-01 1.294364999999999988e+00 -2.268459000000000003e+00 2.326940000000000119e-01 1.294140999999999986e+00 -2.268975999999999882e+00 -2.341030000000000055e-01 -1.293557000000000068e+00 2.265928000000000164e+00 -2.959999999999999849e-04 -1.626000000000000058e-03 -7.500000000000000156e-04 -2.330319999999999891e-01 -1.293584999999999985e+00 2.265445000000000153e+00 -7.179999999999999967e-04 -3.989999999999999949e-04 7.050000000000000060e-04 -2.331630000000000091e-01 -1.293730000000000047e+00 2.265727000000000046e+00 -9.999999999999999547e-07 -1.939999999999999993e-04 -3.040000000000000167e-04 -2.341749999999999943e-01 -1.293838999999999961e+00 2.265959000000000056e+00 -7.349999999999999763e-04 -5.259999999999999919e-04 1.371999999999999956e-03 -2.340029999999999888e-01 -1.293519000000000085e+00 2.265368000000000048e+00 2.339870000000000005e-01 1.293914000000000009e+00 -2.267615000000000158e+00 1.124999999999999915e-03 -6.189999999999999756e-04 5.910000000000000539e-04 -1.054999999999999948e-03 1.093000000000000005e-03 9.349999999999999587e-04 2.351610000000000089e-01 1.292662999999999895e+00 -2.267185000000000006e+00 1.196000000000000014e-03 5.529999999999999976e-04 5.249999999999999676e-04 2.328860000000000097e-01 1.294936000000000087e+00 -2.267837000000000103e+00 -1.613000000000000067e-03 -2.739999999999999923e-04 9.430000000000000448e-04 8.210000000000000067e-04 -2.001000000000000174e-03 -3.449999999999999833e-04 2.332259999999999889e-01 1.294586999999999932e+00 -2.268063000000000162e+00 2.328469999999999984e-01 1.294071999999999889e+00 -2.268231000000000108e+00 2.328399999999999914e-01 1.295223000000000013e+00 -2.268883000000000205e+00 -2.324950000000000072e-01 -1.291959999999999997e+00 2.266486000000000001e+00 -2.335119999999999973e-01 -1.292964000000000002e+00 2.265784000000000020e+00 -2.324430000000000107e-01 -1.294658000000000087e+00 2.265932999999999975e+00 -2.321100000000000108e-01 -1.292977000000000043e+00 2.265397999999999801e+00 -9.110000000000000259e-04 1.480999999999999895e-03 9.290000000000000297e-04 4.339999999999999782e-04 9.039999999999999642e-04 1.330999999999999935e-03 -1.534999999999999906e-03 5.150000000000000498e-04 9.690000000000000262e-04 2.332700000000000051e-01 1.296324000000000032e+00 -2.268353999999999981e+00 2.759999999999999867e-04 5.039999999999999992e-04 1.379000000000000017e-03 -3.980000000000000248e-04 -7.789999999999999616e-04 -1.859999999999999945e-04 2.341459999999999930e-01 1.294059000000000070e+00 -2.268120000000000136e+00 2.322029999999999927e-01 1.294159999999999977e+00 -2.268534999999999968e+00 2.333949999999999914e-01 1.293968999999999925e+00 -2.268431999999999782e+00 2.327500000000000124e-01 1.295542999999999889e+00 -2.269517000000000007e+00 -2.337879999999999958e-01 -1.294432999999999945e+00 2.268142000000000102e+00 -2.329209999999999892e-01 -1.294300999999999924e+00 2.267221000000000153e+00 -2.337740000000000096e-01 -1.293439999999999923e+00 2.267419999999999991e+00 -2.336270000000000013e-01 -1.293759000000000103e+00 2.266917999999999989e+00 2.324600000000000000e-01 1.295714999999999950e+00 -2.268730000000000135e+00 2.332259999999999889e-01 1.294728000000000101e+00 -2.268550999999999984e+00 2.320329999999999893e-01 1.295207999999999915e+00 -2.268660000000000121e+00 2.330560000000000132e-01 1.294853999999999949e+00 -2.268651000000000195e+00 -2.331570000000000031e-01 -1.292724999999999902e+00 2.266043999999999947e+00 -5.130000000000000011e-04 1.193999999999999966e-03 8.229999999999999469e-04 -2.336370000000000113e-01 -1.293036000000000074e+00 2.266774999999999984e+00 -9.640000000000000131e-04 9.770000000000000039e-04 6.790000000000000245e-04 -8.159999999999999936e-04 1.144999999999999967e-03 8.689999999999999808e-04 -2.336290000000000033e-01 -1.292551999999999923e+00 2.265587000000000018e+00 -5.209999999999999788e-04 -3.319999999999999926e-04 -5.130000000000000011e-04 -2.340359999999999940e-01 -1.294017999999999891e+00 2.266176000000000190e+00 -6.019999999999999961e-04 1.572000000000000047e-03 4.989999999999999861e-04