9.329456932267206071e+00 -8.295480093226981063e-17 0.000000000000000000e+00 1.038228389394675988e+00 1.609210985718411280e+01 0.000000000000000000e+00 0.000000000000000000e+00 0.000000000000000000e+00 2.165763593999999870e+01
9.329456932267206071e+00 -8.295480093226981063e-17 0.000000000000000000e+00 1.038228389394675988e+00 1.609210985718411280e+01 0.000000000000000000e+00 0.000000000000000000e+00 0.000000000000000000e+00 2.165763593999999870e+01
9.329456932267206071e+00 -8.295480093226981063e-17 0.000000000000000000e+00 1.038228389394675988e+00 1.609210985718411280e+01 0.000000000000000000e+00 0.000000000000000000e+00 0.000000000000000000e+00 2.165763593999999870e+01
9.329456932267206071e+00 -8.295480093226981063e-17 0.000000000000000000e+00 1.038228389394675988e+00 1.609210985718411280e+01 0.000000000000000000e+00 0.000000000000000000e+00 0.000000000000000000e+00 2.165763593999999870e+01
9.329456932267206071e+00 -8.295480093226981063e-17 0.000000000000000000e+00 1.038228389394675988e+00 1.609210985718411280e+01 0.000000000000000000e+00 0.000000000000000000e+00 0.000000000000000000e+00 2.165763593999999870e+01
