9.321776118209104567e+00 1.169267468492114336e-03 4.877679999999999794e+00 1.720263022427803046e+00 2.683179664906463202e+00 4.877679999999999794e+00 2.386638403085377391e-01 3.574780830250881447e+00 2.313349999999999795e+00 1.620532120661853259e+00 8.927659852969292986e-01 2.313349999999999795e+00 3.102131302781118372e+00 1.164819952511299966e-03 4.877679999999999794e+00 4.830085108221836343e+00 2.683176899038461460e+00 4.877679999999999794e+00 3.348485926102570787e+00 3.574778064382879705e+00 2.313349999999999795e+00 4.730354206455886334e+00 8.927632194289278900e-01 2.313349999999999795e+00 6.211953388575151891e+00 1.162054084509767929e-03 4.877679999999999794e+00 7.939897214763885991e+00 2.683174777010379763e+00 4.877679999999999794e+00 6.458298032644620434e+00 3.574775942354797564e+00 2.313349999999999795e+00 7.840176292249918966e+00 8.927604535609264813e-01 2.313349999999999795e+00 9.667851664044523119e+00 5.365196835348313265e+00 4.877679999999999794e+00 2.066339212103140976e+00 8.047217212038269452e+00 4.877679999999999794e+00 5.847400299838755311e-01 8.938818377382686364e+00 2.313349999999999795e+00 1.966607666497271589e+00 6.256793553176750677e+00 2.313349999999999795e+00 3.448207492456456080e+00 5.365202367084316748e+00 4.877679999999999794e+00 5.176161297897174052e+00 8.047214446170267266e+00 4.877679999999999794e+00 3.694562115777908495e+00 8.938815611514684178e+00 2.313349999999999795e+00 5.076430396131224043e+00 6.256800766560733251e+00 2.313349999999999795e+00 6.558029578250489600e+00 5.365199601216315450e+00 4.877679999999999794e+00 8.285973404439223700e+00 8.047212324142185125e+00 4.877679999999999794e+00 6.804374222319958143e+00 8.938813489486602037e+00 2.313349999999999795e+00 8.186252481925256674e+00 6.256798000692731954e+00 2.313349999999999795e+00 1.001392785371986172e+01 1.072923438248012040e+01 4.877679999999999794e+00 2.412415401778478685e+00 1.341125475917007392e+01 4.877679999999999794e+00 9.308162196592133508e-01 1.430285592451449261e+01 2.313349999999999795e+00 2.312683856172609520e+00 1.162083110030855693e+01 2.313349999999999795e+00 3.794283682131793789e+00 1.072923991421612122e+01 4.877679999999999794e+00 5.522237487572511760e+00 1.341125199330207352e+01 4.877679999999999794e+00 4.040638305453246204e+00 1.430285315864649043e+01 2.313349999999999795e+00 5.422506585806561752e+00 1.162083831369253950e+01 2.313349999999999795e+00 6.904105767925827308e+00 1.072923714834812081e+01 4.877679999999999794e+00 8.632049594114560520e+00 1.341124987127399137e+01 4.877679999999999794e+00 7.150450411995295852e+00 1.430285103661840829e+01 2.313349999999999795e+00 8.532328671600595271e+00 1.162083554782453731e+01 2.313349999999999795e+00 9.321776118209104567e+00 1.169267468492114336e-03 1.209689000000000014e+01 1.720263022427803046e+00 2.683179664906463202e+00 1.209689000000000014e+01 2.386638403085377391e-01 3.574780830250881447e+00 9.532560000000000144e+00 1.620532120661853259e+00 8.927659852969292986e-01 9.532560000000000144e+00 3.102131302781118372e+00 1.164819952511299966e-03 1.209689000000000014e+01 4.830085108221836343e+00 2.683176899038461460e+00 1.209689000000000014e+01 3.348485926102570787e+00 3.574778064382879705e+00 9.532560000000000144e+00 4.730354206455886334e+00 8.927632194289278900e-01 9.532560000000000144e+00 6.211953388575151891e+00 1.162054084509767929e-03 1.209689000000000014e+01 7.939897214763885991e+00 2.683174777010379763e+00 1.209689000000000014e+01 6.458298032644620434e+00 3.574775942354797564e+00 9.532560000000000144e+00 7.840176292249918966e+00 8.927604535609264813e-01 9.532560000000000144e+00 9.667851664044523119e+00 5.365196835348313265e+00 1.209689000000000014e+01 2.066339212103140976e+00 8.047217212038269452e+00 1.209689000000000014e+01 5.847400299838755311e-01 8.938818377382686364e+00 9.532560000000000144e+00 1.966607666497271589e+00 6.256793553176750677e+00 9.532560000000000144e+00 3.448207492456456080e+00 5.365202367084316748e+00 1.209689000000000014e+01 5.176161297897174052e+00 8.047214446170267266e+00 1.209689000000000014e+01 3.694562115777908495e+00 8.938815611514684178e+00 9.532560000000000144e+00 5.076430396131224043e+00 6.256800766560733251e+00 9.532560000000000144e+00 6.558029578250489600e+00 5.365199601216315450e+00 1.209689000000000014e+01 8.285973404439223700e+00 8.047212324142185125e+00 1.209689000000000014e+01 6.804374222319958143e+00 8.938813489486602037e+00 9.532560000000000144e+00 8.186252481925256674e+00 6.256798000692731954e+00 9.532560000000000144e+00 1.001392785371986172e+01 1.072923438248012040e+01 1.209689000000000014e+01 2.412415401778478685e+00 1.341125475917007392e+01 1.209689000000000014e+01 9.308162196592133508e-01 1.430285592451449261e+01 9.532560000000000144e+00 2.312683856172609520e+00 1.162083110030855693e+01 9.532560000000000144e+00 3.794283682131793789e+00 1.072923991421612122e+01 1.209689000000000014e+01 5.522237487572511760e+00 1.341125199330207352e+01 1.209689000000000014e+01 4.040638305453246204e+00 1.430285315864649043e+01 9.532560000000000144e+00 5.422506585806561752e+00 1.162083831369253950e+01 9.532560000000000144e+00 6.904105767925827308e+00 1.072923714834812081e+01 1.209689000000000014e+01 8.632049594114560520e+00 1.341124987127399137e+01 1.209689000000000014e+01 7.150450411995295852e+00 1.430285103661840829e+01 9.532560000000000144e+00 8.532328671600595271e+00 1.162083554782453731e+01 9.532560000000000144e+00 9.321776118209104567e+00 1.169267468492114336e-03 1.931609999999999872e+01 1.720263022427803046e+00 2.683179664906463202e+00 1.931609999999999872e+01 2.386638403085377391e-01 3.574780830250881447e+00 1.675177000000000049e+01 1.620532120661853259e+00 8.927659852969292986e-01 1.675178000000000011e+01 3.102131302781118372e+00 1.164819952511299966e-03 1.931609999999999872e+01 4.830085108221836343e+00 2.683176899038461460e+00 1.931609999999999872e+01 3.348485926102570787e+00 3.574778064382879705e+00 1.675177000000000049e+01 4.730354206455886334e+00 8.927632194289278900e-01 1.675178000000000011e+01 6.211953388575151891e+00 1.162054084509767929e-03 1.931609999999999872e+01 7.939897214763885991e+00 2.683174777010379763e+00 1.931609999999999872e+01 6.458298032644620434e+00 3.574775942354797564e+00 1.675177000000000049e+01 7.840176292249918966e+00 8.927604535609264813e-01 1.675178000000000011e+01 9.667851664044523119e+00 5.365196835348313265e+00 1.931609999999999872e+01 2.066339212103140976e+00 8.047217212038269452e+00 1.931609999999999872e+01 5.847400299838755311e-01 8.938818377382686364e+00 1.675177000000000049e+01 1.966607666497271589e+00 6.256793553176750677e+00 1.675178000000000011e+01 3.448207492456456080e+00 5.365202367084316748e+00 1.931609999999999872e+01 5.176161297897174052e+00 8.047214446170267266e+00 1.931609999999999872e+01 3.694562115777908495e+00 8.938815611514684178e+00 1.675177000000000049e+01 5.076430396131224043e+00 6.256800766560733251e+00 1.675178000000000011e+01 6.558029578250489600e+00 5.365199601216315450e+00 1.931609999999999872e+01 8.285973404439223700e+00 8.047212324142185125e+00 1.931609999999999872e+01 6.804374222319958143e+00 8.938813489486602037e+00 1.675177000000000049e+01 8.186252481925256674e+00 6.256798000692731954e+00 1.675178000000000011e+01 1.001392785371986172e+01 1.072923438248012040e+01 1.931609999999999872e+01 2.412415401778478685e+00 1.341125475917007392e+01 1.931609999999999872e+01 9.308162196592133508e-01 1.430285592451449261e+01 1.675177000000000049e+01 2.312683856172609520e+00 1.162083110030855693e+01 1.675178000000000011e+01 3.794283682131793789e+00 1.072923991421612122e+01 1.931609999999999872e+01 5.522237487572511760e+00 1.341125199330207352e+01 1.931609999999999872e+01 4.040638305453246204e+00 1.430285315864649043e+01 1.675177000000000049e+01 5.422506585806561752e+00 1.162083831369253950e+01 1.675178000000000011e+01 6.904105767925827308e+00 1.072923714834812081e+01 1.931609999999999872e+01 8.632049594114560520e+00 1.341124987127399137e+01 1.931609999999999872e+01 7.150450411995295852e+00 1.430285103661840829e+01 1.675177000000000049e+01 8.532328671600595271e+00 1.162083554782453731e+01 1.675178000000000011e+01 1.154672139837631811e-01 1.787985474967519695e+00 3.595439999999999969e+00 9.529510394647102700e+00 3.578506771100597561e+00 5.927150000000000141e+00 1.758872102379433811e+00 2.679436091040678036e+00 1.263779999999999903e+00 3.770038220261182627e-01 5.361450935994629852e+00 1.263800000000000034e+00 1.843410396332577417e+00 4.469988218641405275e+00 3.595460000000000100e+00 1.581921753030383737e+00 8.964896006587463884e-01 5.927150000000000141e+00 3.225289299777795993e+00 1.787982709099518397e+00 3.595439999999999969e+00 3.309865579219117393e+00 3.578502323584616285e+00 5.927150000000000141e+00 4.868694832013385820e+00 2.679443304424661054e+00 1.263779999999999903e+00 3.486815928568167244e+00 5.361448813966547711e+00 1.263800000000000034e+00 4.953232482126611380e+00 4.469985452773404866e+00 3.595460000000000100e+00 4.691733859572432941e+00 8.964874786306644694e-01 5.927150000000000141e+00 6.335101406319845196e+00 1.787980587071436034e+00 3.595439999999999969e+00 6.419688308853070957e+00 3.578509536968598415e+00 5.927150000000000141e+00 7.978506938555435468e+00 2.679441182396578469e+00 1.263779999999999903e+00 6.596638658202119920e+00 5.361456027350531173e+00 1.263800000000000034e+00 8.063054567920644899e+00 4.469982686905402680e+00 3.595460000000000100e+00 7.801556589206385617e+00 8.964946920146467102e-01 5.927150000000000141e+00 4.615434036591010147e-01 7.152023022099325722e+00 3.595439999999999969e+00 9.875586584322439521e+00 8.942544318232402034e+00 5.927150000000000141e+00 2.104948292054771741e+00 8.043473638172484286e+00 1.263779999999999903e+00 7.230800117014561934e-01 1.072548848312643699e+01 1.263800000000000034e+00 2.189485942167995969e+00 9.834015786521227653e+00 3.595460000000000100e+00 1.927997942705721446e+00 6.260527147790551972e+00 5.927150000000000141e+00 3.571365489453133701e+00 7.152020256231323536e+00 3.595439999999999969e+00 3.655941768894455102e+00 8.942539870716421646e+00 5.927150000000000141e+00 5.214770377848804372e+00 8.043470872304482100e+00 1.263779999999999903e+00 3.832892118243505397e+00 1.072548636109835485e+01 1.263800000000000034e+00 5.299308671801949089e+00 9.834022999905208451e+00 3.595460000000000100e+00 5.037810049247770650e+00 6.260525025762469831e+00 5.927150000000000141e+00 6.681177595995182905e+00 7.152018134203241395e+00 3.595439999999999969e+00 6.765764498528408666e+00 8.942547084100404220e+00 5.927150000000000141e+00 8.324583128230774065e+00 8.043478729528384719e+00 1.263779999999999903e+00 6.942714204037537584e+00 1.072548359523035266e+01 1.263800000000000034e+00 8.409130757595981720e+00 9.834020234037208041e+00 3.595460000000000100e+00 8.147632135041803281e+00 6.260522259894467645e+00 5.927150000000000141e+00 8.076195933344388900e-01 1.251606056923113108e+01 3.595439999999999969e+00 1.022166277399777812e+01 1.430658186536420828e+01 5.927150000000000141e+00 2.451024481730109450e+00 1.340751118530428876e+01 1.263779999999999903e+00 1.069156201376793902e+00 1.608952603025824146e+01 1.263800000000000034e+00 2.535562131843333677e+00 1.519805333365303213e+01 3.595460000000000100e+00 2.274074132381059155e+00 1.162456469492235733e+01 5.927150000000000141e+00 3.917441679128471854e+00 1.251605780336312890e+01 3.595439999999999969e+00 4.002017958569792810e+00 1.430657741784822790e+01 5.927150000000000141e+00 5.560846567524142081e+00 1.340750841943628657e+01 1.263779999999999903e+00 4.178968307918842662e+00 1.608952390823015932e+01 1.263800000000000034e+00 5.645384861477286798e+00 1.519806054703701470e+01 3.595460000000000100e+00 5.383886238923108358e+00 1.162456257289427519e+01 5.927150000000000141e+00 7.027253785670520614e+00 1.251605568133504676e+01 3.595439999999999969e+00 7.111840688203746375e+00 1.430658463123221047e+01 5.927150000000000141e+00 8.670659317906110886e+00 1.340751627666019097e+01 1.263779999999999903e+00 7.288790393712876181e+00 1.608952114236215891e+01 1.263800000000000034e+00 8.755206947271320317e+00 1.519805778116901251e+01 3.595460000000000100e+00 8.493708324717141878e+00 1.162455980702627301e+01 5.927150000000000141e+00 1.154672139837631811e-01 1.787985474967519695e+00 1.081465000000000032e+01 9.529510394647102700e+00 3.578506771100597561e+00 1.314635999999999960e+01 1.758872102379433811e+00 2.679436091040678036e+00 8.482989999999999142e+00 3.770038220261182627e-01 5.361450935994629852e+00 8.483010000000000161e+00 1.843410396332577417e+00 4.469988218641405275e+00 1.081466999999999956e+01 1.581921753030383737e+00 8.964896006587463884e-01 1.314635999999999960e+01 3.225289299777795993e+00 1.787982709099518397e+00 1.081465000000000032e+01 3.309865579219117393e+00 3.578502323584616285e+00 1.314635999999999960e+01 4.868694832013385820e+00 2.679443304424661054e+00 8.482989999999999142e+00 3.486815928568167244e+00 5.361448813966547711e+00 8.483010000000000161e+00 4.953232482126611380e+00 4.469985452773404866e+00 1.081466999999999956e+01 4.691733859572432941e+00 8.964874786306644694e-01 1.314635999999999960e+01 6.335101406319845196e+00 1.787980587071436034e+00 1.081465000000000032e+01 6.419688308853070957e+00 3.578509536968598415e+00 1.314635999999999960e+01 7.978506938555435468e+00 2.679441182396578469e+00 8.482989999999999142e+00 6.596638658202119920e+00 5.361456027350531173e+00 8.483010000000000161e+00 8.063054567920644899e+00 4.469982686905402680e+00 1.081466999999999956e+01 7.801556589206385617e+00 8.964946920146467102e-01 1.314635999999999960e+01 4.615434036591010147e-01 7.152023022099325722e+00 1.081465000000000032e+01 9.875586584322439521e+00 8.942544318232402034e+00 1.314635999999999960e+01 2.104948292054771741e+00 8.043473638172484286e+00 8.482989999999999142e+00 7.230800117014561934e-01 1.072548848312643699e+01 8.483010000000000161e+00 2.189485942167995969e+00 9.834015786521227653e+00 1.081466999999999956e+01 1.927997942705721446e+00 6.260527147790551972e+00 1.314635999999999960e+01 3.571365489453133701e+00 7.152020256231323536e+00 1.081465000000000032e+01 3.655941768894455102e+00 8.942539870716421646e+00 1.314635999999999960e+01 5.214770377848804372e+00 8.043470872304482100e+00 8.482989999999999142e+00 3.832892118243505397e+00 1.072548636109835485e+01 8.483010000000000161e+00 5.299308671801949089e+00 9.834022999905208451e+00 1.081466999999999956e+01 5.037810049247770650e+00 6.260525025762469831e+00 1.314635999999999960e+01 6.681177595995182905e+00 7.152018134203241395e+00 1.081465000000000032e+01 6.765764498528408666e+00 8.942547084100404220e+00 1.314635999999999960e+01 8.324583128230774065e+00 8.043478729528384719e+00 8.482989999999999142e+00 6.942714204037537584e+00 1.072548359523035266e+01 8.483010000000000161e+00 8.409130757595981720e+00 9.834020234037208041e+00 1.081466999999999956e+01 8.147632135041803281e+00 6.260522259894467645e+00 1.314635999999999960e+01 8.076195933344388900e-01 1.251606056923113108e+01 1.081465000000000032e+01 1.022166277399777812e+01 1.430658186536420828e+01 1.314635999999999960e+01 2.451024481730109450e+00 1.340751118530428876e+01 8.482989999999999142e+00 1.069156201376793902e+00 1.608952603025824146e+01 8.483010000000000161e+00 2.535562131843333677e+00 1.519805333365303213e+01 1.081466999999999956e+01 2.274074132381059155e+00 1.162456469492235733e+01 1.314635999999999960e+01 3.917441679128471854e+00 1.251605780336312890e+01 1.081465000000000032e+01 4.002017958569792810e+00 1.430657741784822790e+01 1.314635999999999960e+01 5.560846567524142081e+00 1.340750841943628657e+01 8.482989999999999142e+00 4.178968307918842662e+00 1.608952390823015932e+01 8.483010000000000161e+00 5.645384861477286798e+00 1.519806054703701470e+01 1.081466999999999956e+01 5.383886238923108358e+00 1.162456257289427519e+01 1.314635999999999960e+01 7.027253785670520614e+00 1.251605568133504676e+01 1.081465000000000032e+01 7.111840688203746375e+00 1.430658463123221047e+01 1.314635999999999960e+01 8.670659317906110886e+00 1.340751627666019097e+01 8.482989999999999142e+00 7.288790393712876181e+00 1.608952114236215891e+01 8.483010000000000161e+00 8.755206947271320317e+00 1.519805778116901251e+01 1.081466999999999956e+01 8.493708324717141878e+00 1.162455980702627301e+01 1.314635999999999960e+01 1.154672139837631811e-01 1.787985474967519695e+00 1.803386000000000067e+01 9.529510394647102700e+00 3.578506771100597561e+00 2.036558000000000135e+01 1.758872102379433811e+00 2.679436091040678036e+00 1.570219999999999949e+01 3.770038220261182627e-01 5.361450935994629852e+00 1.570222000000000051e+01 1.843410396332577417e+00 4.469988218641405275e+00 1.803388999999999953e+01 1.581921753030383737e+00 8.964896006587463884e-01 2.036557000000000173e+01 3.225289299777795993e+00 1.787982709099518397e+00 1.803386000000000067e+01 3.309865579219117393e+00 3.578502323584616285e+00 2.036558000000000135e+01 4.868694832013385820e+00 2.679443304424661054e+00 1.570219999999999949e+01 3.486815928568167244e+00 5.361448813966547711e+00 1.570222000000000051e+01 4.953232482126611380e+00 4.469985452773404866e+00 1.803388999999999953e+01 4.691733859572432941e+00 8.964874786306644694e-01 2.036557000000000173e+01 6.335101406319845196e+00 1.787980587071436034e+00 1.803386000000000067e+01 6.419688308853070957e+00 3.578509536968598415e+00 2.036558000000000135e+01 7.978506938555435468e+00 2.679441182396578469e+00 1.570219999999999949e+01 6.596638658202119920e+00 5.361456027350531173e+00 1.570222000000000051e+01 8.063054567920644899e+00 4.469982686905402680e+00 1.803388999999999953e+01 7.801556589206385617e+00 8.964946920146467102e-01 2.036557000000000173e+01 4.615434036591010147e-01 7.152023022099325722e+00 1.803386000000000067e+01 9.875586584322439521e+00 8.942544318232402034e+00 2.036558000000000135e+01 2.104948292054771741e+00 8.043473638172484286e+00 1.570219999999999949e+01 7.230800117014561934e-01 1.072548848312643699e+01 1.570222000000000051e+01 2.189485942167995969e+00 9.834015786521227653e+00 1.803388999999999953e+01 1.927997942705721446e+00 6.260527147790551972e+00 2.036557000000000173e+01 3.571365489453133701e+00 7.152020256231323536e+00 1.803386000000000067e+01 3.655941768894455102e+00 8.942539870716421646e+00 2.036558000000000135e+01 5.214770377848804372e+00 8.043470872304482100e+00 1.570219999999999949e+01 3.832892118243505397e+00 1.072548636109835485e+01 1.570222000000000051e+01 5.299308671801949089e+00 9.834022999905208451e+00 1.803388999999999953e+01 5.037810049247770650e+00 6.260525025762469831e+00 2.036557000000000173e+01 6.681177595995182905e+00 7.152018134203241395e+00 1.803386000000000067e+01 6.765764498528408666e+00 8.942547084100404220e+00 2.036558000000000135e+01 8.324583128230774065e+00 8.043478729528384719e+00 1.570219999999999949e+01 6.942714204037537584e+00 1.072548359523035266e+01 1.570222000000000051e+01 8.409130757595981720e+00 9.834020234037208041e+00 1.803388999999999953e+01 8.147632135041803281e+00 6.260522259894467645e+00 2.036557000000000173e+01 8.076195933344388900e-01 1.251606056923113108e+01 1.803386000000000067e+01 1.022166277399777812e+01 1.430658186536420828e+01 2.036558000000000135e+01 2.451024481730109450e+00 1.340751118530428876e+01 1.570219999999999949e+01 1.069156201376793902e+00 1.608952603025824146e+01 1.570222000000000051e+01 2.535562131843333677e+00 1.519805333365303213e+01 1.803388999999999953e+01 2.274074132381059155e+00 1.162456469492235733e+01 2.036557000000000173e+01 3.917441679128471854e+00 1.251605780336312890e+01 1.803386000000000067e+01 4.002017958569792810e+00 1.430657741784822790e+01 2.036558000000000135e+01 5.560846567524142081e+00 1.340750841943628657e+01 1.570219999999999949e+01 4.178968307918842662e+00 1.608952390823015932e+01 1.570222000000000051e+01 5.645384861477286798e+00 1.519806054703701470e+01 1.803388999999999953e+01 5.383886238923108358e+00 1.162456257289427519e+01 2.036557000000000173e+01 7.027253785670520614e+00 1.251605568133504676e+01 1.803386000000000067e+01 7.111840688203746375e+00 1.430658463123221047e+01 2.036558000000000135e+01 8.670659317906110886e+00 1.340751627666019097e+01 1.570219999999999949e+01 7.288790393712876181e+00 1.608952114236215891e+01 1.570222000000000051e+01 8.755206947271320317e+00 1.519805778116901251e+01 1.803388999999999953e+01 8.493708324717141878e+00 1.162455980702627301e+01 2.036557000000000173e+01