-2.820403519389999929e+03
-2.820369179230000100e+03
-2.820266446650000034e+03
-2.820096064070000011e+03
-2.819859229250000226e+03
