-4.862438376980197235e-03 5.692442622198168236e-04 3.977999999999999765e-03 -4.425925742355672418e-03 1.029093933104939474e-03 3.776999999999999975e-03 4.496071167894495103e-03 -4.854822893039833554e-04 -5.285999999999999900e-03 3.651794071323359852e-03 -5.402379666846449276e-04 -4.591999999999999728e-03 -4.479203255600938162e-03 3.431008525404190572e-04 4.161999999999999901e-03 -5.434506144614235923e-03 1.130240224089604532e-03 4.172999999999999626e-03 5.182676296534423528e-03 -2.962961446597553493e-04 -4.491000000000000200e-03 4.765898555897480141e-03 2.486683632759122933e-04 -4.720000000000000237e-03 -4.474504077846189372e-03 -8.108179412069702172e-05 4.096999999999999947e-03 -4.840001809595869536e-03 1.870066392102437414e-04 4.517000000000000182e-03 4.530256986828597870e-03 -1.167097525184024927e-03 -4.230000000000000253e-03 5.156247814942185002e-03 -3.805878221828219265e-05 -5.161999999999999922e-03 -4.698617284312526197e-03 7.941634690412219515e-04 4.359000000000000027e-03 -4.644763089526301840e-03 -1.262134785753116152e-04 3.902999999999999785e-03 4.317700840300774980e-03 -3.506356607624151132e-05 -4.826000000000000428e-03 5.335230350672077147e-03 -1.528205001546135435e-04 -5.107000000000000428e-03 -5.027740621584185325e-03 1.349860810316168530e-04 3.703999999999999827e-03 -4.526684608963308168e-03 6.788545138501323687e-04 3.844000000000000195e-03 5.189887090218172142e-03 -3.087863189760090932e-04 -4.977999999999999786e-03 4.274918291218038346e-03 -3.409436953654505146e-04 -5.106000000000000295e-03 -5.374824264868992459e-03 8.438033667718454912e-04 4.409999999999999858e-03 -4.623162286904769144e-03 1.930582009174137221e-04 4.174999999999999892e-03 3.945022452750186585e-03 -9.499672874877862017e-04 -4.697999999999999919e-03 5.182290099289914818e-03 -2.401547975821482941e-04 -4.662999999999999610e-03 -5.573894552732861461e-03 6.782768719445931432e-04 3.941000000000000059e-03 -5.519330159952466446e-03 9.182617194673208666e-04 4.294000000000000074e-03 4.469899742087755229e-03 -5.028332682747026390e-04 -4.965999999999999928e-03 4.439896375011599498e-03 -1.216382003796035761e-03 -4.407000000000000327e-03 -4.559714023660989268e-03 -8.159670599551208808e-05 4.433999999999999574e-03 -4.451035712629479620e-03 5.156453091971053247e-04 4.455999999999999892e-03 4.996256476046828827e-03 -8.404226469819384669e-04 -4.602000000000000188e-03 4.588717011273713703e-03 -6.337548346539340115e-04 -5.226999999999999875e-03 -4.645663184927456557e-03 6.053623478625695014e-04 3.876000000000000105e-03 -5.030412157098090344e-03 3.265555538032408078e-04 3.788000000000000134e-03 5.338481608881447821e-03 -1.800864004708693940e-04 -4.982999999999999582e-03 5.202698384190344860e-03 -7.625526363098969170e-04 -4.447000000000000432e-03 -4.738405470910626686e-03 8.297991282498664439e-04 3.943999999999999589e-03 -4.211018272958869449e-03 6.945632475206982032e-04 3.543999999999999841e-03 4.484224726790538539e-03 -5.448427292717809020e-04 -5.132000000000000277e-03 3.741865141914153207e-03 -3.867185794964841982e-04 -4.189000000000000015e-03 -4.373261664379099294e-03 6.649476782966860051e-04 4.308000000000000197e-03 -5.409107913600330608e-03 7.939071602059531588e-04 4.099000000000000213e-03 5.442329733323623270e-03 -4.653644526407523657e-04 -4.309999999999999595e-03 4.768570998422378381e-03 5.851945257818176420e-04 -4.473000000000000413e-03 -4.685451851707848545e-03 3.614179648654631334e-04 4.076999999999999895e-03 -5.026035006010252937e-03 -1.647456171177679612e-04 4.289000000000000278e-03 4.317859746167511739e-03 -1.228550044738201553e-03 -4.290999999999999676e-03 5.015766106092976045e-03 2.074954673454464452e-04 -4.755999999999999811e-03 -4.543198756099476460e-03 6.248056198340194841e-04 3.944999999999999722e-03 -4.458247413324222322e-03 3.984823582976137570e-08 3.527000000000000187e-03 4.390936003856427128e-03 1.526106485057753296e-04 -4.657999999999999814e-03 5.335133641300186282e-03 -2.319785107871287196e-04 -5.032000000000000015e-03 -4.865497763699833285e-03 -1.460428410840940638e-04 3.383000000000000156e-03 -4.509236813913523184e-03 7.939699969438529384e-04 3.611000000000000060e-03 5.075802124470724444e-03 -5.792057681418365776e-05 -4.769999999999999934e-03 4.433974008117027264e-03 -7.490310376363775672e-04 -4.883000000000000188e-03 -5.609852238608418855e-03 5.713701610865990019e-04 4.140999999999999716e-03 -4.711719720118539949e-03 4.202312209320901906e-04 3.828999999999999938e-03 4.021959829226779554e-03 -6.272512511634365136e-04 -4.314000000000000126e-03 5.070876135520493468e-03 -4.915030195316698065e-04 -4.765000000000000138e-03 -5.580911981026417251e-03 8.180186183919050660e-04 3.726000000000000145e-03 -5.518976021319963246e-03 9.392825326254498723e-04 4.179000000000000423e-03 4.335565717428140758e-03 -7.366694712432549389e-04 -4.897000000000000311e-03 4.461335657440592718e-03 -1.225781853205993709e-03 -4.413000000000000256e-03 -4.542942500617794949e-03 -1.167494585877577775e-04 4.233999999999999916e-03 -4.534668117257601577e-03 6.172406875177662618e-04 4.157000000000000105e-03 5.163618048028549047e-03 -9.333909438567729918e-04 -4.614000000000000046e-03 4.606261408988215206e-03 -5.016102391956427748e-04 -5.387000000000000295e-03 -4.601046412347657016e-03 5.203132819972559539e-04 3.608000000000000096e-03 -4.946876301781095997e-03 2.389955122519814854e-04 3.488999999999999914e-03 5.199157904876296546e-03 -4.446651326136572642e-04 -5.049999999999999802e-03 5.136095145280382586e-03 -6.299894115199784284e-04 -4.473000000000000413e-03 -4.880078950530710065e-03 6.685861474687336070e-04 4.205999999999999669e-03 -4.529163899512364880e-03 3.453221269393956928e-04 3.726000000000000145e-03 4.394121490880566194e-03 -6.833288544921502965e-04 -4.530000000000000172e-03 3.806343335614738917e-03 -7.696644797710656309e-04 -3.867000000000000211e-03 -4.647562966195398909e-03 3.118757368713115591e-04 4.269000000000000225e-03 -5.616676781694070718e-03 5.587834374592181349e-04 3.804999999999999789e-03 5.570385758555701505e-03 -6.550026724218957399e-04 -3.981000000000000164e-03 4.643089585917963003e-03 3.798474656229327857e-04 -4.364999999999999956e-03 -4.368273265519671128e-03 -4.985657174441391671e-05 4.173999999999999759e-03 -4.680850236982394934e-03 -6.389538785717250756e-04 4.367000000000000222e-03 4.169394048841718742e-03 -1.324189663712589801e-03 -4.002000000000000349e-03 4.948807981600278870e-03 -1.158644088983765168e-04 -4.348000000000000302e-03 -4.625801763806670387e-03 3.074655134533016160e-04 4.056999999999999842e-03 -4.580347732563615909e-03 3.907117208369144845e-04 3.651000000000000165e-03 4.385142404945748668e-03 6.219574650622129372e-04 -4.499000000000000395e-03 5.434990811899033034e-03 -8.209673911360995040e-05 -4.708000000000000379e-03 -4.813895354670544129e-03 -1.383492474911220105e-04 3.508999999999999966e-03 -4.454575978529177506e-03 9.577906094292342127e-04 3.808000000000000187e-03 5.290034922468570162e-03 3.892139759347784276e-04 -4.788999999999999854e-03 4.486027585272238730e-03 -4.547719254489274252e-04 -4.743999999999999953e-03 -5.711511574092323872e-03 7.352554243318668243e-04 4.066000000000000170e-03 -4.747644280310336223e-03 8.574513325178063266e-04 4.049999999999999781e-03 3.941193072452987139e-03 -1.550714856077289210e-04 -4.475999999999999944e-03 4.922861552967034739e-03 -3.316415690455523017e-04 -4.459000000000000290e-03 -5.482052682272371691e-03 9.990292231913434646e-04 3.618000000000000122e-03 -5.572767165953933927e-03 1.084046177091065087e-03 4.281000000000000083e-03 4.362541916457427470e-03 -7.223766518596515945e-04 -4.305999999999999932e-03 4.533861903488181112e-03 -1.452922654547902578e-03 -4.086000000000000222e-03 -4.721860332234212830e-03 1.853968793507970920e-04 3.965999999999999907e-03 -4.485157734461103080e-03 8.565495298018409222e-04 4.170000000000000095e-03 5.120771808550507453e-03 -8.364311596027315318e-04 -4.111000000000000071e-03 4.665878798034334834e-03 -8.511739199797361535e-04 -5.209000000000000088e-03 -4.533959839992592576e-03 6.592823138340241649e-04 3.384999999999999988e-03 -4.924921467234234448e-03 5.171591066348912380e-04 3.592999999999999840e-03 5.191142444677176310e-03 -3.669879004423426383e-04 -4.447000000000000432e-03 5.012094351176403853e-03 -9.366419886517918280e-04 -4.270000000000000358e-03 9.380518206297400457e-05 1.182057012928407858e-04 9.740000000000000394e-04 5.042023037018158148e-03 -6.219529861185505402e-03 -1.265999999999999981e-03 -4.974001749677718805e-03 7.040854464779327908e-03 2.112000000000000162e-03 -4.868801668111825270e-03 6.714403943507681570e-03 2.556000000000000112e-03 1.932117714253652277e-04 3.232308948455769578e-04 9.449999999999999850e-04 5.215854853392263776e-03 -6.414125594993005074e-03 -1.497000000000000067e-03 2.688604009912545214e-04 4.699444522688347034e-06 1.103999999999999947e-03 4.909169897526919658e-03 -6.399349335457124241e-03 -1.118000000000000070e-03 -4.868093817675519727e-03 6.507929976752160894e-03 2.190999999999999805e-03 -5.162672769032780259e-03 7.766507444140345780e-03 2.259999999999999856e-03 -9.419073906442808320e-05 3.107090353924340425e-04 1.183999999999999940e-03 6.126091669075414171e-03 -6.315525699582323280e-03 -1.472999999999999917e-03 8.598276713251941849e-05 1.367478107913795346e-04 7.479999999999999670e-04 5.991307116532932145e-03 -6.463154031537686126e-03 -1.451000000000000033e-03 -5.289218838285398606e-03 6.193391080880236016e-03 2.175999999999999983e-03 -5.062398569709941620e-03 7.068603378419157680e-03 2.318000000000000182e-03 3.029189991955105678e-04 2.219573831310647457e-04 1.154000000000000078e-03 5.057731770688723982e-03 -6.535196197189944121e-03 -1.250999999999999942e-03 9.081129976062950800e-05 5.626995500073812335e-05 1.446999999999999936e-03 5.754347569681498090e-03 -6.796589442308592979e-03 -1.324000000000000090e-03 -5.299326804899601000e-03 6.223103519536902876e-03 2.504000000000000149e-03 -5.138016794625050246e-03 6.346974745353168093e-03 1.632999999999999903e-03 -2.771674832065069500e-05 -1.034300820000144216e-04 4.330000000000000081e-04 5.298681844554783277e-03 -6.885436203334217506e-03 -1.461000000000000059e-03 3.935045014788277344e-04 1.068678229867457435e-05 8.980000000000000352e-04 5.391843240051871940e-03 -6.746145304891299974e-03 -1.028000000000000051e-03 -5.017137637089141497e-03 7.179920259341574483e-03 2.366000000000000048e-03 -5.369825035231232807e-03 6.435082290927125227e-03 1.580000000000000024e-03 3.532010295307961385e-04 -8.591875661568701362e-05 9.240000000000000166e-04 5.411480357595805160e-03 -6.441778119382472224e-03 -1.242999999999999964e-03 9.757151220792284994e-05 9.892320256370172127e-05 1.544000000000000017e-03 5.327879638104574163e-03 -6.634796045235352019e-03 -1.216000000000000067e-03 -5.668751693390128819e-03 6.585640761435938850e-03 2.526000000000000034e-03 -4.882322093006412171e-03 6.629097448381754062e-03 1.546000000000000065e-03 1.519734244311951761e-04 -5.489235632277555477e-04 5.800000000000000034e-04 5.725955669779601159e-03 -6.397934328181154214e-03 -8.589999999999999546e-04 4.825331412839238349e-07 -1.944344803828980406e-04 1.185000000000000072e-03 5.107853828085516697e-03 -6.270874840954182225e-03 -9.650000000000000374e-04 -5.060306436769974880e-03 6.899117027995999366e-03 1.570999999999999914e-03 -5.397765340178505705e-03 7.368818516720819847e-03 1.652000000000000040e-03 -2.632269884334211343e-04 -2.610656163250126542e-05 8.999999999999999754e-04 6.108096530063694685e-03 -6.485720220563314514e-03 -1.255000000000000039e-03 5.433535209437003952e-04 -4.158460668060763392e-04 1.170999999999999949e-03 5.884078005532910119e-03 -6.711766013859828302e-03 -6.380000000000000037e-04 -4.833810115590593537e-03 6.588890632452024804e-03 1.536999999999999955e-03 -5.601987414469915966e-03 6.502169023342952922e-03 1.507000000000000093e-03 6.026825958961359300e-04 5.330749106734349626e-05 1.049000000000000019e-03 5.455710986284684032e-03 -6.439621389036205568e-03 -9.840000000000000656e-04 -2.945554293193122661e-05 -3.788896554283121935e-04 1.302999999999999905e-03 5.406135846021123230e-03 -6.897379300456476028e-03 -1.247999999999999977e-03 -5.222033155646990145e-03 7.809418334378274464e-03 1.329000000000000103e-03 -4.998725362646254909e-03 6.564457841195803223e-03 1.637999999999999916e-03 3.295412730066446159e-04 3.394871858924282653e-04 5.310000000000000050e-04 4.503432704346039747e-03 -6.444319659779961136e-03 -7.489999999999999913e-04 1.591856053082281301e-04 2.462619399392707909e-04 1.618999999999999996e-03 5.013404699395893581e-03 -6.461188692498863462e-03 -1.833999999999999910e-03 -5.064426372011550381e-03 7.208023204906733108e-03 1.142999999999999919e-03 -5.323147494726826641e-03 6.661546873616030172e-03 1.007999999999999998e-03 4.751738079188156825e-04 2.358958504678123486e-04 9.579999999999999757e-04 5.412993461436949906e-03 -6.371730203519357545e-03 -1.621999999999999961e-03 5.783141886318611275e-04 2.192206633213945887e-04 1.807000000000000012e-03 5.065103230907607758e-03 -6.716046028747071385e-03 -1.739000000000000094e-03 -4.925522364409782618e-03 6.767165317745611405e-03 1.178999999999999927e-03 -5.344521166031351508e-03 7.386426978305740861e-03 1.038999999999999993e-03 4.439172205271705115e-05 8.231266617717053664e-05 1.100000000000000066e-03 5.956058508226201760e-03 -6.062052379069837217e-03 -1.629000000000000023e-03 -1.380347970336840205e-04 4.698621019063674948e-04 1.379000000000000017e-03 5.471097960056277819e-03 -6.667084003630675826e-03 -1.869999999999999917e-03 -5.845834981387956417e-03 6.683244599023805028e-03 1.010999999999999963e-03 -5.143810767010843256e-03 6.598870417971800136e-03 8.760000000000000425e-04 1.990703412174567723e-04 1.965909439612245483e-04 8.729999999999999696e-04 4.766402423579610068e-03 -6.266882553271156849e-03 -1.350999999999999987e-03 2.023851297613687994e-04 -3.267082173001988206e-04 1.201000000000000028e-03 5.400084230960364856e-03 -6.711604226899347755e-03 -1.351999999999999903e-03 -5.591654610742982819e-03 6.180837056107913244e-03 1.337999999999999997e-03 -5.232014648481575839e-03 6.505355310670909996e-03 8.760000000000000425e-04 8.627177482284642811e-05 -2.781315891244934757e-04 3.480000000000000020e-04 5.286063008961810160e-03 -6.832513949146801213e-03 -2.005999999999999971e-03 4.064769421684263006e-04 -3.318591500703360901e-04 8.800000000000000313e-04 5.364899366402528340e-03 -6.682278038840777645e-03 -1.111999999999999924e-03 -5.251070762843936500e-03 7.110838476832784597e-03 1.324000000000000090e-03 -5.388366771254655962e-03 6.644711019934477006e-03 8.769999999999999584e-04 5.007005401486760857e-04 -2.537636086889213721e-04 1.088999999999999907e-03 5.247595254411300918e-03 -6.450244107464460017e-03 -1.623000000000000094e-03 1.038158524158199039e-04 -3.323736884700362001e-04 1.404999999999999999e-03 4.990613139721655767e-03 -6.597003068790976109e-03 -1.190000000000000085e-03 -5.870075687740093813e-03 6.229864638995189115e-03 1.427000000000000100e-03 -5.039575111484463285e-03 7.034062247073618289e-03 9.020000000000000240e-04 3.611728533893501569e-05 -6.827419290623258251e-04 4.949999999999999973e-04 5.220200906232677802e-03 -6.269104521266775573e-03 -1.111999999999999924e-03 -4.506799405930926703e-05 -2.325809018631367687e-04 1.335000000000000032e-03 5.139336959904704759e-03 -6.155662808549334369e-03 -9.879999999999999460e-04 -5.114677944342466837e-03 6.506803710398579611e-03 7.420000000000000380e-04 -5.689320858240046186e-03 7.152140460868672625e-03 9.539999999999999869e-04 -1.303735821742430651e-04 3.090351583089792457e-04 1.634999999999999952e-03 6.060839693692528056e-03 -6.627972782635808795e-03 -1.124999999999999915e-03 7.632512565755050380e-04 -3.779252827423863455e-04 1.208000000000000089e-03 5.870944844954589271e-03 -6.231924873383915334e-03 -4.739999999999999747e-04 -4.972490246444210941e-03 6.178968906623272077e-03 8.220000000000000310e-04 -5.629414674917949772e-03 6.263439583632816540e-03 9.719999999999999907e-04 5.336332988280534937e-04 4.585940496581801767e-04 1.585000000000000037e-03 5.235716114452286692e-03 -6.805215776804189425e-03 -8.170000000000000179e-04 2.842406522107786122e-05 -4.136883760952293418e-04 1.005999999999999950e-03 5.074052765849049011e-03 -6.484141078768999693e-03 -1.093000000000000005e-03 -5.690543833965518335e-03 7.319566576903103854e-03 6.210000000000000242e-04 -5.586761267294222330e-03 6.349872718587439881e-03 8.940000000000000464e-04 3.296382491464744922e-04 5.739674421948049582e-04 1.038999999999999993e-03 4.422600016326251604e-03 -6.874006844307840869e-03 -8.180000000000000422e-04 2.078892407994290903e-04 -6.607556761465140614e-04 2.170000000000000054e-03 4.992028146997625794e-03 -7.413788841043657610e-03 -1.508000000000000009e-03 -4.809055190960283624e-03 6.553222807924201539e-03 1.284999999999999901e-03 -5.258282090063563785e-03 6.812684159809315361e-03 9.610000000000000486e-04 3.821728121889229543e-04 -2.270769508858400305e-04 1.167000000000000069e-03 4.772710720950751676e-03 -6.945697112178283832e-03 -1.902999999999999961e-03 5.428379154722434837e-04 -7.344739597329163214e-04 1.809999999999999977e-03 4.472624564047336312e-03 -7.154810235714178374e-03 -1.495999999999999934e-03 -4.922561874559139294e-03 6.129651995924141616e-03 1.221000000000000080e-03 -4.986072601065702666e-03 7.521629146461682354e-03 1.030000000000000100e-03 4.146190362079278327e-05 -1.650118497203764277e-04 9.569999999999999514e-04 5.819244446067299743e-03 -7.064323256824739383e-03 -2.184000000000000177e-03 3.679345063835152974e-05 -5.946025916443042512e-04 1.368000000000000075e-03 5.578196755818356362e-03 -7.321336896590509638e-03 -1.747999999999999988e-03 -6.002445867261346421e-03 6.104126277412451167e-03 1.347000000000000107e-03 -5.221841764339547887e-03 6.787285288552356161e-03 8.710000000000000294e-04 4.385073112423719713e-04 -2.236969780461629733e-04 8.300000000000000086e-04 4.940071919457357345e-03 -7.256116552990924708e-03 -1.510999999999999973e-03 2.571762270300688631e-04 7.089128213331865941e-04 1.242000000000000048e-03 5.326786070606050541e-03 -6.092600689196474295e-03 -2.020000000000000094e-03 -5.275761356835887567e-03 7.116439777425025842e-03 1.549000000000000030e-03 -5.197924365140430512e-03 6.427999945105744746e-03 1.716000000000000077e-03 4.317013352052899227e-05 1.057414459694881997e-03 4.539999999999999765e-04 5.333512517126528553e-03 -6.966847653684889174e-03 -1.572999999999999962e-03 6.198414366091823920e-04 6.143668232109094664e-04 8.829999999999999958e-04 5.173040992647752467e-03 -6.207941276170865497e-03 -1.593000000000000015e-03 -5.111617170429546067e-03 8.029766491185769822e-03 1.378000000000000102e-03 -5.149026030419339046e-03 6.424845129500325602e-03 1.621999999999999961e-03 5.737120403705297123e-04 9.089480154188596828e-04 6.440000000000000412e-04 4.986847503173349322e-03 -6.173882731320196569e-03 -1.360000000000000098e-03 -1.043304441691078784e-04 6.039703290886701660e-04 1.363000000000000062e-03 5.066906889693126824e-03 -6.160008487914632978e-03 -1.912000000000000071e-03 -6.056299581865279280e-03 7.304083267234735485e-03 1.526000000000000013e-03 -5.162094913712889956e-03 6.843555296906682697e-03 1.562000000000000020e-03 2.343614654394096035e-05 5.806959161516213590e-04 5.339999999999999695e-04 5.319961367459634556e-03 -6.198380760225771953e-03 -9.439999999999999607e-04 1.351060456735167167e-04 -9.589763512446810743e-05 2.000000000000000042e-03 4.899029925654300663e-03 -6.261410287430749580e-03 -1.806000000000000097e-03 -5.022579551632357954e-03 6.241323228893413781e-03 1.668999999999999911e-03 -5.518837062800789270e-03 6.874588167610941672e-03 1.525000000000000097e-03 4.039954107686801350e-05 -1.970098400607910006e-04 2.211999999999999991e-03 5.684558256857930904e-03 -6.169795654994444586e-03 -2.420999999999999975e-03 6.221577130652385015e-04 -2.505768945322620327e-04 1.675000000000000057e-03 5.444057643802982689e-03 -6.527052502542807048e-03 -1.729000000000000068e-03 -5.105021786097239771e-03 5.817752363539767553e-03 1.693999999999999976e-03 -5.526532043587045230e-03 6.118514899156951396e-03 1.327999999999999970e-03 5.001534096010934200e-04 -1.845848500403022327e-04 2.031999999999999952e-03 5.143167567334423936e-03 -6.236076280348027898e-03 -2.308000000000000156e-03 8.031644230527641086e-05 -2.617140980066286053e-04 1.526999999999999929e-03 5.257928218198998187e-03 -6.678382727297582470e-03 -2.279999999999999909e-03 -5.654522457694655981e-03 7.023633374217847294e-03 1.755000000000000050e-03 -5.734679674011668865e-03 6.278247688366349853e-03 1.368999999999999991e-03 3.678484677291942351e-04 1.877058997189059379e-04 1.900999999999999912e-03 4.449448407736224069e-03 -6.302549790909514268e-03 -2.041999999999999978e-03