-3.981739177928037066e+01 -1.625904172359505537e+02 3.192542872758693306e+01 -1.625904172359505822e+02 5.876791492515996751e+00 4.047760658287847590e+00 3.192542872758693306e+01 4.047760658287847590e+00 3.292094301987452099e+01
-3.956186475076499676e+01 -1.626400039752707585e+02 3.178440952269593822e+01 -1.626400039752707585e+02 6.067836356324306735e+00 4.098080602675000073e+00 3.178440952269593822e+01 4.098080602675000073e+00 3.320883526547796549e+01
-3.979083656074455888e+01 -1.626861998162296743e+02 3.163075110370266430e+01 -1.626861998162296459e+02 5.771129832885995015e+00 4.146979008601982208e+00 3.163075110370266430e+01 4.146979008601982208e+00 3.303659915322388230e+01
-3.902128441436501305e+01 -1.627238514292279206e+02 3.148587290264632799e+01 -1.627238514292279206e+02 6.440896855753099004e+00 4.192016452484691236e+00 3.148587290264632799e+01 4.192016452484691236e+00 3.391923058884949427e+01
-3.810006534497347985e+01 -1.627383506915512328e+02 3.129449283913303859e+01 -1.627383506915512328e+02 7.243500084828195185e+00 4.242840170356999785e+00 3.129449283913303859e+01 4.242840170356999785e+00 3.479924408427470439e+01
