-4.702363042800000130e+02
-4.702363057100000105e+02
-4.702363085200000228e+02
-4.702363128100000154e+02
-4.702363186700000028e+02
-4.702363261599999760e+02
