9.580124070000000103e+00 0.000000000000000000e+00 0.000000000000000000e+00 0.000000000000000000e+00 1.659326236000000065e+01 0.000000000000000000e+00 0.000000000000000000e+00 0.000000000000000000e+00 2.005720155999999932e+01
9.580124070000000103e+00 0.000000000000000000e+00 0.000000000000000000e+00 0.000000000000000000e+00 1.659326236000000065e+01 0.000000000000000000e+00 0.000000000000000000e+00 0.000000000000000000e+00 2.005720155999999932e+01
9.580124070000000103e+00 0.000000000000000000e+00 0.000000000000000000e+00 0.000000000000000000e+00 1.659326236000000065e+01 0.000000000000000000e+00 0.000000000000000000e+00 0.000000000000000000e+00 2.005720155999999932e+01
9.580124070000000103e+00 0.000000000000000000e+00 0.000000000000000000e+00 0.000000000000000000e+00 1.659326236000000065e+01 0.000000000000000000e+00 0.000000000000000000e+00 0.000000000000000000e+00 2.005720155999999932e+01
9.580124070000000103e+00 0.000000000000000000e+00 0.000000000000000000e+00 0.000000000000000000e+00 1.659326236000000065e+01 0.000000000000000000e+00 0.000000000000000000e+00 0.000000000000000000e+00 2.005720155999999932e+01
