1.200000000000000030e-04 1.659311999999999898e+01 4.570759999999999934e+00 1.596810000000000063e+00 2.765400000000000080e+00 4.570759999999999934e+00 1.399999999999999877e-04 3.687450000000000117e+00 2.088880000000000070e+00 1.596829999999999972e+00 9.219000000000000528e-01 2.088890000000000136e+00 3.193499999999999783e+00 1.659311999999999898e+01 4.570759999999999934e+00 4.790180000000000327e+00 2.765400000000000080e+00 4.570759999999999934e+00 3.193519999999999914e+00 3.687450000000000117e+00 2.088880000000000070e+00 4.790210000000000079e+00 9.219000000000000528e-01 2.088890000000000136e+00 6.386870000000000047e+00 1.659311999999999898e+01 4.570759999999999934e+00 7.983559999999999768e+00 2.765400000000000080e+00 4.570759999999999934e+00 6.386890000000000178e+00 3.687450000000000117e+00 2.088880000000000070e+00 7.983579999999999899e+00 9.219000000000000528e-01 2.088890000000000136e+00 1.200000000000000030e-04 5.530940000000000190e+00 4.570759999999999934e+00 1.596810000000000063e+00 8.296490000000000364e+00 4.570759999999999934e+00 1.399999999999999877e-04 9.218529999999999447e+00 2.088880000000000070e+00 1.596829999999999972e+00 6.452989999999999782e+00 2.088890000000000136e+00 3.193499999999999783e+00 5.530940000000000190e+00 4.570759999999999934e+00 4.790180000000000327e+00 8.296490000000000364e+00 4.570759999999999934e+00 3.193519999999999914e+00 9.218529999999999447e+00 2.088880000000000070e+00 4.790210000000000079e+00 6.452989999999999782e+00 2.088890000000000136e+00 6.386870000000000047e+00 5.530940000000000190e+00 4.570759999999999934e+00 7.983559999999999768e+00 8.296490000000000364e+00 4.570759999999999934e+00 6.386890000000000178e+00 9.218529999999999447e+00 2.088880000000000070e+00 7.983579999999999899e+00 6.452989999999999782e+00 2.088890000000000136e+00 1.200000000000000030e-04 1.106203000000000003e+01 4.570759999999999934e+00 1.596810000000000063e+00 1.382757999999999932e+01 4.570759999999999934e+00 1.399999999999999877e-04 1.474962000000000018e+01 2.088880000000000070e+00 1.596829999999999972e+00 1.198408000000000051e+01 2.088890000000000136e+00 3.193499999999999783e+00 1.106203000000000003e+01 4.570759999999999934e+00 4.790180000000000327e+00 1.382757999999999932e+01 4.570759999999999934e+00 3.193519999999999914e+00 1.474962000000000018e+01 2.088880000000000070e+00 4.790210000000000079e+00 1.198408000000000051e+01 2.088890000000000136e+00 6.386870000000000047e+00 1.106203000000000003e+01 4.570759999999999934e+00 7.983559999999999768e+00 1.382757999999999932e+01 4.570759999999999934e+00 6.386890000000000178e+00 1.474962000000000018e+01 2.088880000000000070e+00 7.983579999999999899e+00 1.198408000000000051e+01 2.088890000000000136e+00 1.200000000000000030e-04 1.659311999999999898e+01 1.125650000000000084e+01 1.596810000000000063e+00 2.765400000000000080e+00 1.125650000000000084e+01 1.399999999999999877e-04 3.687450000000000117e+00 8.774620000000000530e+00 1.596829999999999972e+00 9.219000000000000528e-01 8.774620000000000530e+00 3.193499999999999783e+00 1.659311999999999898e+01 1.125650000000000084e+01 4.790180000000000327e+00 2.765400000000000080e+00 1.125650000000000084e+01 3.193519999999999914e+00 3.687450000000000117e+00 8.774620000000000530e+00 4.790210000000000079e+00 9.219000000000000528e-01 8.774620000000000530e+00 6.386870000000000047e+00 1.659311999999999898e+01 1.125650000000000084e+01 7.983559999999999768e+00 2.765400000000000080e+00 1.125650000000000084e+01 6.386890000000000178e+00 3.687450000000000117e+00 8.774620000000000530e+00 7.983579999999999899e+00 9.219000000000000528e-01 8.774620000000000530e+00 1.200000000000000030e-04 5.530940000000000190e+00 1.125650000000000084e+01 1.596810000000000063e+00 8.296490000000000364e+00 1.125650000000000084e+01 1.399999999999999877e-04 9.218529999999999447e+00 8.774620000000000530e+00 1.596829999999999972e+00 6.452989999999999782e+00 8.774620000000000530e+00 3.193499999999999783e+00 5.530940000000000190e+00 1.125650000000000084e+01 4.790180000000000327e+00 8.296490000000000364e+00 1.125650000000000084e+01 3.193519999999999914e+00 9.218529999999999447e+00 8.774620000000000530e+00 4.790210000000000079e+00 6.452989999999999782e+00 8.774620000000000530e+00 6.386870000000000047e+00 5.530940000000000190e+00 1.125650000000000084e+01 7.983559999999999768e+00 8.296490000000000364e+00 1.125650000000000084e+01 6.386890000000000178e+00 9.218529999999999447e+00 8.774620000000000530e+00 7.983579999999999899e+00 6.452989999999999782e+00 8.774620000000000530e+00 1.200000000000000030e-04 1.106203000000000003e+01 1.125650000000000084e+01 1.596810000000000063e+00 1.382757999999999932e+01 1.125650000000000084e+01 1.399999999999999877e-04 1.474962000000000018e+01 8.774620000000000530e+00 1.596829999999999972e+00 1.198408000000000051e+01 8.774620000000000530e+00 3.193499999999999783e+00 1.106203000000000003e+01 1.125650000000000084e+01 4.790180000000000327e+00 1.382757999999999932e+01 1.125650000000000084e+01 3.193519999999999914e+00 1.474962000000000018e+01 8.774620000000000530e+00 4.790210000000000079e+00 1.198408000000000051e+01 8.774620000000000530e+00 6.386870000000000047e+00 1.106203000000000003e+01 1.125650000000000084e+01 7.983559999999999768e+00 1.382757999999999932e+01 1.125650000000000084e+01 6.386890000000000178e+00 1.474962000000000018e+01 8.774620000000000530e+00 7.983579999999999899e+00 1.198408000000000051e+01 8.774620000000000530e+00 1.200000000000000030e-04 1.659311999999999898e+01 1.794222999999999857e+01 1.596810000000000063e+00 2.765400000000000080e+00 1.794222999999999857e+01 1.399999999999999877e-04 3.687450000000000117e+00 1.546035000000000004e+01 1.596829999999999972e+00 9.219000000000000528e-01 1.546035999999999966e+01 3.193499999999999783e+00 1.659311999999999898e+01 1.794222999999999857e+01 4.790180000000000327e+00 2.765400000000000080e+00 1.794222999999999857e+01 3.193519999999999914e+00 3.687450000000000117e+00 1.546035000000000004e+01 4.790210000000000079e+00 9.219000000000000528e-01 1.546035999999999966e+01 6.386870000000000047e+00 1.659311999999999898e+01 1.794222999999999857e+01 7.983559999999999768e+00 2.765400000000000080e+00 1.794222999999999857e+01 6.386890000000000178e+00 3.687450000000000117e+00 1.546035000000000004e+01 7.983579999999999899e+00 9.219000000000000528e-01 1.546035999999999966e+01 1.200000000000000030e-04 5.530940000000000190e+00 1.794222999999999857e+01 1.596810000000000063e+00 8.296490000000000364e+00 1.794222999999999857e+01 1.399999999999999877e-04 9.218529999999999447e+00 1.546035000000000004e+01 1.596829999999999972e+00 6.452989999999999782e+00 1.546035999999999966e+01 3.193499999999999783e+00 5.530940000000000190e+00 1.794222999999999857e+01 4.790180000000000327e+00 8.296490000000000364e+00 1.794222999999999857e+01 3.193519999999999914e+00 9.218529999999999447e+00 1.546035000000000004e+01 4.790210000000000079e+00 6.452989999999999782e+00 1.546035999999999966e+01 6.386870000000000047e+00 5.530940000000000190e+00 1.794222999999999857e+01 7.983559999999999768e+00 8.296490000000000364e+00 1.794222999999999857e+01 6.386890000000000178e+00 9.218529999999999447e+00 1.546035000000000004e+01 7.983579999999999899e+00 6.452989999999999782e+00 1.546035999999999966e+01 1.200000000000000030e-04 1.106203000000000003e+01 1.794222999999999857e+01 1.596810000000000063e+00 1.382757999999999932e+01 1.794222999999999857e+01 1.399999999999999877e-04 1.474962000000000018e+01 1.546035000000000004e+01 1.596829999999999972e+00 1.198408000000000051e+01 1.546035999999999966e+01 3.193499999999999783e+00 1.106203000000000003e+01 1.794222999999999857e+01 4.790180000000000327e+00 1.382757999999999932e+01 1.794222999999999857e+01 3.193519999999999914e+00 1.474962000000000018e+01 1.546035000000000004e+01 4.790210000000000079e+00 1.198408000000000051e+01 1.546035999999999966e+01 6.386870000000000047e+00 1.106203000000000003e+01 1.794222999999999857e+01 7.983559999999999768e+00 1.382757999999999932e+01 1.794222999999999857e+01 6.386890000000000178e+00 1.474962000000000018e+01 1.546035000000000004e+01 7.983579999999999899e+00 1.198408000000000051e+01 1.546035999999999966e+01 1.299999999999999886e-04 1.843650000000000011e+00 3.329750000000000210e+00 1.200000000000000030e-04 3.687469999999999803e+00 5.543759999999999799e+00 1.596829999999999972e+00 2.765369999999999884e+00 1.115779999999999994e+00 1.399999999999999877e-04 1.659309999999999974e+01 1.115769999999999929e+00 1.596819999999999906e+00 4.609200000000000408e+00 3.329750000000000210e+00 1.596810000000000063e+00 9.219199999999999617e-01 5.543770000000000309e+00 3.193509999999999849e+00 1.843650000000000011e+00 3.329750000000000210e+00 3.193490000000000162e+00 3.687469999999999803e+00 5.543759999999999799e+00 4.790210000000000079e+00 2.765369999999999884e+00 1.115779999999999994e+00 3.193519999999999914e+00 1.659309999999999974e+01 1.115769999999999929e+00 4.790189999999999948e+00 4.609200000000000408e+00 3.329750000000000210e+00 4.790180000000000327e+00 9.219199999999999617e-01 5.543770000000000309e+00 6.386879999999999669e+00 1.843650000000000011e+00 3.329750000000000210e+00 6.386870000000000047e+00 3.687469999999999803e+00 5.543759999999999799e+00 7.983579999999999899e+00 2.765369999999999884e+00 1.115779999999999994e+00 6.386890000000000178e+00 1.659309999999999974e+01 1.115769999999999929e+00 7.983570000000000277e+00 4.609200000000000408e+00 3.329750000000000210e+00 7.983559999999999768e+00 9.219199999999999617e-01 5.543770000000000309e+00 1.299999999999999886e-04 7.374740000000000073e+00 3.329750000000000210e+00 1.200000000000000030e-04 9.218560000000000088e+00 5.543759999999999799e+00 1.596829999999999972e+00 8.296459999999999724e+00 1.115779999999999994e+00 1.399999999999999877e-04 5.530929999999999680e+00 1.115769999999999929e+00 1.596819999999999906e+00 1.014028000000000063e+01 3.329750000000000210e+00 1.596810000000000063e+00 6.453000000000000291e+00 5.543770000000000309e+00 3.193509999999999849e+00 7.374740000000000073e+00 3.329750000000000210e+00 3.193490000000000162e+00 9.218560000000000088e+00 5.543759999999999799e+00 4.790210000000000079e+00 8.296459999999999724e+00 1.115779999999999994e+00 3.193519999999999914e+00 5.530929999999999680e+00 1.115769999999999929e+00 4.790189999999999948e+00 1.014028000000000063e+01 3.329750000000000210e+00 4.790180000000000327e+00 6.453000000000000291e+00 5.543770000000000309e+00 6.386879999999999669e+00 7.374740000000000073e+00 3.329750000000000210e+00 6.386870000000000047e+00 9.218560000000000088e+00 5.543759999999999799e+00 7.983579999999999899e+00 8.296459999999999724e+00 1.115779999999999994e+00 6.386890000000000178e+00 5.530929999999999680e+00 1.115769999999999929e+00 7.983570000000000277e+00 1.014028000000000063e+01 3.329750000000000210e+00 7.983559999999999768e+00 6.453000000000000291e+00 5.543770000000000309e+00 1.299999999999999886e-04 1.290582999999999991e+01 3.329750000000000210e+00 1.200000000000000030e-04 1.474965000000000082e+01 5.543759999999999799e+00 1.596829999999999972e+00 1.382754000000000083e+01 1.115779999999999994e+00 1.399999999999999877e-04 1.106201000000000079e+01 1.115769999999999929e+00 1.596819999999999906e+00 1.567136999999999958e+01 3.329750000000000210e+00 1.596810000000000063e+00 1.198409000000000013e+01 5.543770000000000309e+00 3.193509999999999849e+00 1.290582999999999991e+01 3.329750000000000210e+00 3.193490000000000162e+00 1.474965000000000082e+01 5.543759999999999799e+00 4.790210000000000079e+00 1.382754000000000083e+01 1.115779999999999994e+00 3.193519999999999914e+00 1.106201000000000079e+01 1.115769999999999929e+00 4.790189999999999948e+00 1.567136999999999958e+01 3.329750000000000210e+00 4.790180000000000327e+00 1.198409000000000013e+01 5.543770000000000309e+00 6.386879999999999669e+00 1.290582999999999991e+01 3.329750000000000210e+00 6.386870000000000047e+00 1.474965000000000082e+01 5.543759999999999799e+00 7.983579999999999899e+00 1.382754000000000083e+01 1.115779999999999994e+00 6.386890000000000178e+00 1.106201000000000079e+01 1.115769999999999929e+00 7.983570000000000277e+00 1.567136999999999958e+01 3.329750000000000210e+00 7.983559999999999768e+00 1.198409000000000013e+01 5.543770000000000309e+00 1.299999999999999886e-04 1.843650000000000011e+00 1.001548999999999978e+01 1.200000000000000030e-04 3.687469999999999803e+00 1.222949000000000019e+01 1.596829999999999972e+00 2.765369999999999884e+00 7.801510000000000389e+00 1.399999999999999877e-04 1.659309999999999974e+01 7.801510000000000389e+00 1.596819999999999906e+00 4.609200000000000408e+00 1.001548999999999978e+01 1.596810000000000063e+00 9.219199999999999617e-01 1.222949999999999982e+01 3.193509999999999849e+00 1.843650000000000011e+00 1.001548999999999978e+01 3.193490000000000162e+00 3.687469999999999803e+00 1.222949000000000019e+01 4.790210000000000079e+00 2.765369999999999884e+00 7.801510000000000389e+00 3.193519999999999914e+00 1.659309999999999974e+01 7.801510000000000389e+00 4.790189999999999948e+00 4.609200000000000408e+00 1.001548999999999978e+01 4.790180000000000327e+00 9.219199999999999617e-01 1.222949999999999982e+01 6.386879999999999669e+00 1.843650000000000011e+00 1.001548999999999978e+01 6.386870000000000047e+00 3.687469999999999803e+00 1.222949000000000019e+01 7.983579999999999899e+00 2.765369999999999884e+00 7.801510000000000389e+00 6.386890000000000178e+00 1.659309999999999974e+01 7.801510000000000389e+00 7.983570000000000277e+00 4.609200000000000408e+00 1.001548999999999978e+01 7.983559999999999768e+00 9.219199999999999617e-01 1.222949999999999982e+01 1.299999999999999886e-04 7.374740000000000073e+00 1.001548999999999978e+01 1.200000000000000030e-04 9.218560000000000088e+00 1.222949000000000019e+01 1.596829999999999972e+00 8.296459999999999724e+00 7.801510000000000389e+00 1.399999999999999877e-04 5.530929999999999680e+00 7.801510000000000389e+00 1.596819999999999906e+00 1.014028000000000063e+01 1.001548999999999978e+01 1.596810000000000063e+00 6.453000000000000291e+00 1.222949999999999982e+01 3.193509999999999849e+00 7.374740000000000073e+00 1.001548999999999978e+01 3.193490000000000162e+00 9.218560000000000088e+00 1.222949000000000019e+01 4.790210000000000079e+00 8.296459999999999724e+00 7.801510000000000389e+00 3.193519999999999914e+00 5.530929999999999680e+00 7.801510000000000389e+00 4.790189999999999948e+00 1.014028000000000063e+01 1.001548999999999978e+01 4.790180000000000327e+00 6.453000000000000291e+00 1.222949999999999982e+01 6.386879999999999669e+00 7.374740000000000073e+00 1.001548999999999978e+01 6.386870000000000047e+00 9.218560000000000088e+00 1.222949000000000019e+01 7.983579999999999899e+00 8.296459999999999724e+00 7.801510000000000389e+00 6.386890000000000178e+00 5.530929999999999680e+00 7.801510000000000389e+00 7.983570000000000277e+00 1.014028000000000063e+01 1.001548999999999978e+01 7.983559999999999768e+00 6.453000000000000291e+00 1.222949999999999982e+01 1.299999999999999886e-04 1.290582999999999991e+01 1.001548999999999978e+01 1.200000000000000030e-04 1.474965000000000082e+01 1.222949000000000019e+01 1.596829999999999972e+00 1.382754000000000083e+01 7.801510000000000389e+00 1.399999999999999877e-04 1.106201000000000079e+01 7.801510000000000389e+00 1.596819999999999906e+00 1.567136999999999958e+01 1.001548999999999978e+01 1.596810000000000063e+00 1.198409000000000013e+01 1.222949999999999982e+01 3.193509999999999849e+00 1.290582999999999991e+01 1.001548999999999978e+01 3.193490000000000162e+00 1.474965000000000082e+01 1.222949000000000019e+01 4.790210000000000079e+00 1.382754000000000083e+01 7.801510000000000389e+00 3.193519999999999914e+00 1.106201000000000079e+01 7.801510000000000389e+00 4.790189999999999948e+00 1.567136999999999958e+01 1.001548999999999978e+01 4.790180000000000327e+00 1.198409000000000013e+01 1.222949999999999982e+01 6.386879999999999669e+00 1.290582999999999991e+01 1.001548999999999978e+01 6.386870000000000047e+00 1.474965000000000082e+01 1.222949000000000019e+01 7.983579999999999899e+00 1.382754000000000083e+01 7.801510000000000389e+00 6.386890000000000178e+00 1.106201000000000079e+01 7.801510000000000389e+00 7.983570000000000277e+00 1.567136999999999958e+01 1.001548999999999978e+01 7.983559999999999768e+00 1.198409000000000013e+01 1.222949999999999982e+01 1.299999999999999886e-04 1.843650000000000011e+00 1.670121999999999929e+01 1.200000000000000030e-04 3.687469999999999803e+00 1.891523000000000110e+01 1.596829999999999972e+00 2.765369999999999884e+00 1.448724999999999952e+01 1.399999999999999877e-04 1.659309999999999974e+01 1.448723999999999990e+01 1.596819999999999906e+00 4.609200000000000408e+00 1.670121999999999929e+01 1.596810000000000063e+00 9.219199999999999617e-01 1.891524000000000072e+01 3.193509999999999849e+00 1.843650000000000011e+00 1.670121999999999929e+01 3.193490000000000162e+00 3.687469999999999803e+00 1.891523000000000110e+01 4.790210000000000079e+00 2.765369999999999884e+00 1.448724999999999952e+01 3.193519999999999914e+00 1.659309999999999974e+01 1.448723999999999990e+01 4.790189999999999948e+00 4.609200000000000408e+00 1.670121999999999929e+01 4.790180000000000327e+00 9.219199999999999617e-01 1.891524000000000072e+01 6.386879999999999669e+00 1.843650000000000011e+00 1.670121999999999929e+01 6.386870000000000047e+00 3.687469999999999803e+00 1.891523000000000110e+01 7.983579999999999899e+00 2.765369999999999884e+00 1.448724999999999952e+01 6.386890000000000178e+00 1.659309999999999974e+01 1.448723999999999990e+01 7.983570000000000277e+00 4.609200000000000408e+00 1.670121999999999929e+01 7.983559999999999768e+00 9.219199999999999617e-01 1.891524000000000072e+01 1.299999999999999886e-04 7.374740000000000073e+00 1.670121999999999929e+01 1.200000000000000030e-04 9.218560000000000088e+00 1.891523000000000110e+01 1.596829999999999972e+00 8.296459999999999724e+00 1.448724999999999952e+01 1.399999999999999877e-04 5.530929999999999680e+00 1.448723999999999990e+01 1.596819999999999906e+00 1.014028000000000063e+01 1.670121999999999929e+01 1.596810000000000063e+00 6.453000000000000291e+00 1.891524000000000072e+01 3.193509999999999849e+00 7.374740000000000073e+00 1.670121999999999929e+01 3.193490000000000162e+00 9.218560000000000088e+00 1.891523000000000110e+01 4.790210000000000079e+00 8.296459999999999724e+00 1.448724999999999952e+01 3.193519999999999914e+00 5.530929999999999680e+00 1.448723999999999990e+01 4.790189999999999948e+00 1.014028000000000063e+01 1.670121999999999929e+01 4.790180000000000327e+00 6.453000000000000291e+00 1.891524000000000072e+01 6.386879999999999669e+00 7.374740000000000073e+00 1.670121999999999929e+01 6.386870000000000047e+00 9.218560000000000088e+00 1.891523000000000110e+01 7.983579999999999899e+00 8.296459999999999724e+00 1.448724999999999952e+01 6.386890000000000178e+00 5.530929999999999680e+00 1.448723999999999990e+01 7.983570000000000277e+00 1.014028000000000063e+01 1.670121999999999929e+01 7.983559999999999768e+00 6.453000000000000291e+00 1.891524000000000072e+01 1.299999999999999886e-04 1.290582999999999991e+01 1.670121999999999929e+01 1.200000000000000030e-04 1.474965000000000082e+01 1.891523000000000110e+01 1.596829999999999972e+00 1.382754000000000083e+01 1.448724999999999952e+01 1.399999999999999877e-04 1.106201000000000079e+01 1.448723999999999990e+01 1.596819999999999906e+00 1.567136999999999958e+01 1.670121999999999929e+01 1.596810000000000063e+00 1.198409000000000013e+01 1.891524000000000072e+01 3.193509999999999849e+00 1.290582999999999991e+01 1.670121999999999929e+01 3.193490000000000162e+00 1.474965000000000082e+01 1.891523000000000110e+01 4.790210000000000079e+00 1.382754000000000083e+01 1.448724999999999952e+01 3.193519999999999914e+00 1.106201000000000079e+01 1.448723999999999990e+01 4.790189999999999948e+00 1.567136999999999958e+01 1.670121999999999929e+01 4.790180000000000327e+00 1.198409000000000013e+01 1.891524000000000072e+01 6.386879999999999669e+00 1.290582999999999991e+01 1.670121999999999929e+01 6.386870000000000047e+00 1.474965000000000082e+01 1.891523000000000110e+01 7.983579999999999899e+00 1.382754000000000083e+01 1.448724999999999952e+01 6.386890000000000178e+00 1.106201000000000079e+01 1.448723999999999990e+01 7.983570000000000277e+00 1.567136999999999958e+01 1.670121999999999929e+01 7.983559999999999768e+00 1.198409000000000013e+01 1.891524000000000072e+01