-2.808990197470000112e+03
-2.808952884469999844e+03
-2.808840473180000117e+03
-2.808653705489999993e+03
-2.808393806850000146e+03
