2.349999999999999930e-04 2.709999999999999735e-04 1.753999999999999917e-03 3.339999999999999870e-04 2.640000000000000202e-04 2.441000000000000027e-03 7.999999999999999638e-06 3.550000000000000096e-04 -3.127000000000000005e-03 4.380000000000000213e-04 5.230000000000000274e-04 -3.308000000000000176e-03 7.969999999999999654e-04 4.470000000000000232e-04 1.771999999999999921e-03 -2.100000000000000087e-04 -1.227999999999999925e-03 1.255999999999999955e-03 -4.290000000000000193e-04 -3.899999999999999929e-04 -2.926000000000000215e-03 -1.579999999999999916e-04 6.790000000000000245e-04 -3.167999999999999809e-03 -8.360000000000000460e-04 4.420000000000000101e-04 1.601999999999999908e-03 1.029999999999999964e-04 2.620000000000000258e-04 2.291000000000000068e-03 2.159999999999999919e-04 -4.319999999999999838e-04 -3.030000000000000141e-03 -4.829999999999999767e-04 4.569999999999999952e-04 -3.387999999999999953e-03 1.830000000000000029e-04 1.248999999999999893e-03 1.397999999999999937e-03 -1.069999999999999988e-03 3.849999999999999798e-04 2.145000000000000205e-03 2.300000000000000002e-05 1.144000000000000052e-03 -3.302999999999999946e-03 -6.539999999999999590e-04 5.619999999999999996e-04 -3.295999999999999885e-03 -5.199999999999999544e-04 -4.139999999999999800e-04 2.358999999999999986e-03 -1.610000000000000103e-04 2.950000000000000148e-04 2.017000000000000130e-03 -1.056000000000000081e-03 7.990000000000000140e-04 -3.321999999999999866e-03 -1.640000000000000019e-04 -3.600000000000000091e-05 -3.416000000000000199e-03 6.220000000000000485e-04 -1.450000000000000009e-04 2.219000000000000052e-03 1.431999999999999896e-03 3.440000000000000132e-04 2.040000000000000147e-03 8.409999999999999507e-04 7.849999999999999990e-04 -3.301999999999999814e-03 5.479999999999999845e-04 5.320000000000000293e-04 -3.242999999999999789e-03 2.599999999999999772e-04 -1.356000000000000000e-03 1.320999999999999909e-03 2.649999999999999903e-04 -6.499999999999999702e-04 2.295999999999999864e-03 -2.900000000000000017e-05 1.210000000000000002e-04 -3.719000000000000083e-03 -1.649999999999999991e-04 -4.150000000000000043e-04 -3.226999999999999834e-03 -6.030000000000000204e-04 2.369999999999999874e-04 2.406000000000000152e-03 -1.589999999999999888e-04 9.269999999999999811e-04 1.128000000000000096e-03 6.700000000000000226e-05 5.770000000000000389e-04 -3.412999999999999801e-03 -1.510000000000000112e-04 3.770000000000000022e-04 -3.236999999999999860e-03 5.439999999999999957e-04 3.499999999999999964e-04 2.243999999999999901e-03 1.379999999999999933e-04 -7.020000000000000415e-04 2.155999999999999930e-03 -3.099999999999999999e-04 5.910000000000000539e-04 -3.493000000000000011e-03 9.500000000000000523e-05 -3.429999999999999889e-04 -3.248000000000000019e-03 1.810000000000000085e-04 1.800000000000000113e-04 1.562000000000000020e-03 2.079999999999999872e-04 3.780000000000000265e-04 2.151000000000000134e-03 8.700000000000000051e-05 7.209999999999999612e-04 -2.471000000000000106e-03 5.999999999999999474e-04 4.319999999999999838e-04 -2.732000000000000053e-03 7.519999999999999558e-04 2.349999999999999930e-04 1.495999999999999934e-03 -1.800000000000000046e-05 -1.051999999999999984e-03 8.409999999999999507e-04 -4.550000000000000008e-04 -2.000000000000000096e-04 -2.386999999999999799e-03 -3.780000000000000265e-04 6.579999999999999478e-04 -2.544999999999999953e-03 -7.190000000000000210e-04 2.590000000000000071e-04 1.405999999999999915e-03 4.699999999999999724e-05 4.209999999999999875e-04 2.017000000000000130e-03 1.520000000000000084e-04 -2.349999999999999930e-04 -2.181000000000000213e-03 -4.220000000000000118e-04 4.569999999999999952e-04 -2.556999999999999811e-03 1.890000000000000133e-04 1.405999999999999915e-03 1.265999999999999981e-03 -1.182000000000000108e-03 -5.820000000000000520e-04 2.252000000000000095e-03 2.799999999999999755e-04 5.540000000000000219e-04 -3.565000000000000027e-03 -7.420000000000000380e-04 6.949999999999999798e-04 -2.899999999999999800e-03 -4.580000000000000195e-04 -6.299999999999999990e-05 2.252000000000000095e-03 9.200000000000000007e-05 -6.189999999999999756e-04 2.197000000000000168e-03 -1.106999999999999911e-03 3.220000000000000206e-04 -3.733999999999999906e-03 -2.509999999999999753e-04 7.200000000000000182e-05 -2.788999999999999813e-03 5.259999999999999919e-04 -1.099999999999999971e-05 2.167999999999999788e-03 1.296999999999999976e-03 -3.840000000000000097e-04 2.309999999999999987e-03 6.260000000000000373e-04 1.859999999999999945e-04 -3.320000000000000034e-03 7.089999999999999948e-04 4.200000000000000174e-04 -2.683000000000000055e-03 1.969999999999999909e-04 -1.407000000000000048e-03 1.500000000000000031e-03 3.119999999999999944e-04 1.069999999999999988e-04 2.122999999999999887e-03 2.590000000000000071e-04 4.300000000000000165e-05 -3.442000000000000181e-03 1.699999999999999987e-05 -9.000000000000000228e-06 -3.759000000000000188e-03 -6.629999999999999609e-04 2.259999999999999910e-04 2.295000000000000165e-03 -8.000000000000000654e-05 1.822999999999999968e-03 8.580000000000000387e-04 -2.699999999999999899e-05 5.270000000000000162e-04 -3.310000000000000008e-03 -3.980000000000000248e-04 6.790000000000000245e-04 -3.592999999999999840e-03 6.639999999999999852e-04 1.039999999999999936e-04 2.439000000000000196e-03 3.499999999999999693e-05 7.299999999999999903e-05 2.115000000000000126e-03 -4.889999999999999599e-04 4.979999999999999618e-04 -3.027000000000000177e-03 1.540000000000000028e-04 -1.019999999999999992e-04 -3.451000000000000074e-03 2.599999999999999772e-04 -3.440000000000000132e-04 1.871999999999999966e-03 1.689999999999999879e-04 7.700000000000000139e-05 2.128000000000000117e-03 1.939999999999999993e-04 2.770000000000000110e-04 -3.640000000000000006e-03 6.199999999999999999e-04 5.910000000000000539e-04 -3.641999999999999838e-03 7.129999999999999836e-04 -2.030000000000000012e-04 1.693000000000000060e-03 2.400000000000000061e-05 -1.347000000000000107e-03 9.680000000000000019e-04 -4.979999999999999618e-04 -6.149999999999999868e-04 -3.527999999999999886e-03 -2.880000000000000073e-04 7.309999999999999875e-04 -3.468999999999999861e-03 -7.380000000000000492e-04 -2.829999999999999942e-04 1.745999999999999939e-03 2.300000000000000002e-05 1.069999999999999988e-04 2.134000000000000046e-03 9.600000000000000243e-05 -5.339999999999999695e-04 -3.429000000000000190e-03 -5.230000000000000274e-04 5.310000000000000050e-04 -3.521999999999999957e-03 2.719999999999999979e-04 1.575000000000000011e-03 1.188000000000000037e-03 -1.106999999999999911e-03 2.840000000000000185e-04 1.799999999999999951e-03 1.499999999999999869e-04 7.720000000000000083e-04 -3.295999999999999885e-03 -7.150000000000000322e-04 1.015000000000000060e-03 -3.529000000000000019e-03 -4.939999999999999730e-04 1.169999999999999979e-04 2.199000000000000000e-03 -7.100000000000000462e-05 3.350000000000000113e-04 1.631999999999999987e-03 -9.779999999999999197e-04 4.240000000000000062e-04 -3.321999999999999866e-03 -1.510000000000000112e-04 4.809999999999999823e-04 -3.605999999999999830e-03 4.800000000000000122e-04 1.210000000000000002e-04 2.069999999999999792e-03 1.378000000000000102e-03 5.029999999999999749e-04 1.739000000000000094e-03 6.210000000000000242e-04 5.869999999999999567e-04 -3.275000000000000133e-03 6.070000000000000092e-04 8.339999999999999974e-04 -3.435999999999999818e-03 3.199999999999999855e-05 -1.025000000000000086e-03 1.485999999999999908e-03 2.180000000000000134e-04 -3.919999999999999873e-04 2.592999999999999819e-03 2.700000000000000035e-04 3.170000000000000075e-04 -3.255000000000000081e-03 -1.259999999999999998e-04 -5.950000000000000427e-04 -2.724999999999999992e-03 -4.020000000000000136e-04 5.159999999999999656e-04 2.393000000000000162e-03 2.599999999999999840e-05 1.095999999999999969e-03 1.608000000000000054e-03 -2.380000000000000117e-04 1.005000000000000034e-03 -3.046000000000000096e-03 -1.430000000000000064e-04 -2.449999999999999921e-04 -2.491000000000000159e-03 6.030000000000000204e-04 6.530000000000000431e-04 2.419999999999999842e-03 3.999999999999999819e-06 -5.710000000000000015e-04 2.776999999999999955e-03 -3.190000000000000019e-04 9.359999999999999831e-04 -2.900999999999999933e-03 5.899999999999999754e-05 -8.400000000000000348e-04 -2.553000000000000148e-03 -2.099999999999999884e-05 2.559999999999999884e-04 2.115999999999999825e-03 -7.999999999999999638e-06 -8.307000000000000148e-03 1.755000000000000050e-03 5.199999999999999680e-05 8.182000000000000037e-03 -5.810000000000000277e-04 -8.700000000000000051e-05 8.632000000000000783e-03 8.339999999999999974e-04 6.099999999999999872e-05 -2.229999999999999994e-04 9.870000000000000301e-04 4.600000000000000004e-05 -7.159999999999999698e-03 1.518000000000000035e-03 -4.130000000000000099e-04 5.259999999999999919e-04 1.492999999999999969e-03 9.299999999999999727e-05 -8.247000000000000858e-03 1.876000000000000063e-03 2.000000000000000164e-05 8.375000000000000500e-03 -8.850000000000000444e-04 -4.199999999999999768e-05 8.430999999999999259e-03 -4.960000000000000216e-04 -5.500000000000000196e-05 -1.679999999999999907e-04 1.231000000000000106e-03 1.959999999999999937e-04 -7.233999999999999979e-03 1.968999999999999830e-03 4.040000000000000080e-04 3.970000000000000005e-04 1.456999999999999962e-03 1.789999999999999870e-04 -8.170000000000000179e-03 2.206000000000000062e-03 3.600000000000000091e-05 8.123999999999999277e-03 -5.410000000000000312e-04 1.699999999999999987e-05 8.396999999999999950e-03 -5.659999999999999884e-04 -3.100000000000000135e-05 -2.090000000000000115e-04 1.021999999999999905e-03 1.200000000000000030e-05 -7.220999999999999988e-03 1.778999999999999982e-03 -1.039999999999999936e-04 -4.769999999999999934e-04 1.732999999999999948e-03 -6.000000000000000152e-06 -8.626999999999999252e-03 1.188999999999999953e-03 1.150000000000000035e-04 7.490000000000000130e-03 -7.110000000000000434e-04 -8.299999999999999815e-05 7.395999999999999797e-03 -4.290000000000000193e-04 3.480000000000000020e-04 -4.809999999999999823e-04 1.469999999999999953e-03 1.530000000000000056e-04 -8.181000000000000771e-03 1.814000000000000074e-03 8.600000000000000331e-05 -1.031999999999999931e-03 1.427000000000000100e-03 2.339999999999999958e-04 -8.455999999999999975e-03 1.333999999999999899e-03 -3.000000000000000076e-06 7.568000000000000074e-03 3.499999999999999693e-05 3.899999999999999929e-05 7.760000000000000404e-03 -5.670000000000000127e-04 -7.100000000000000462e-05 -8.409999999999999507e-04 2.011000000000000201e-03 6.299999999999999990e-05 -8.111999999999999419e-03 1.894999999999999983e-03 8.399999999999999535e-05 -1.031999999999999931e-03 1.415999999999999941e-03 -7.299999999999999903e-05 -8.522999999999999327e-03 1.492000000000000054e-03 -1.979999999999999881e-04 7.498000000000000324e-03 -7.739999999999999485e-04 -5.199999999999999680e-05 7.761999999999999802e-03 -5.079999999999999880e-04 -4.240000000000000062e-04 -5.220000000000000031e-04 1.569000000000000082e-03 -5.500000000000000196e-05 -8.118999999999999481e-03 1.838000000000000007e-03 -5.500000000000000196e-05 -1.540000000000000028e-04 2.409999999999999816e-03 -4.800000000000000122e-05 -7.105000000000000204e-03 2.096999999999999906e-03 7.700000000000000139e-05 8.361999999999999642e-03 3.699999999999999811e-05 -7.700000000000000139e-05 7.407000000000000389e-03 -5.700000000000000314e-05 -1.200000000000000030e-05 4.180000000000000230e-04 1.735999999999999913e-03 1.930000000000000021e-04 -7.841000000000000747e-03 1.160999999999999923e-03 6.600000000000000506e-05 -2.820000000000000241e-04 2.069999999999999792e-03 1.269999999999999970e-04 -7.063999999999999967e-03 2.337000000000000102e-03 2.300000000000000002e-05 7.896999999999999506e-03 -4.409999999999999858e-04 1.359999999999999989e-04 7.028000000000000393e-03 -1.350000000000000017e-04 1.599999999999999928e-05 1.075999999999999917e-03 1.956999999999999972e-03 1.779999999999999898e-04 -7.668000000000000337e-03 1.476000000000000098e-03 6.000000000000000152e-06 -3.209999999999999963e-04 2.008999999999999935e-03 3.499999999999999693e-05 -7.067999999999999630e-03 2.645000000000000216e-03 -9.399999999999999448e-05 8.338999999999999191e-03 -5.399999999999999798e-05 -1.039999999999999936e-04 7.061999999999999701e-03 -2.020000000000000040e-04 4.500000000000000283e-05 4.710000000000000102e-04 1.869999999999999917e-03 -1.830000000000000029e-04 -7.745000000000000148e-03 1.379000000000000017e-03 -1.179999999999999951e-04 -6.139999999999999625e-04 1.028999999999999967e-03 2.300000000000000002e-05 -8.021000000000000352e-03 1.526999999999999929e-03 7.200000000000000182e-05 7.842000000000000012e-03 -1.655000000000000004e-03 -1.939999999999999993e-04 7.694000000000000318e-03 -3.029999999999999924e-04 -9.899999999999999404e-05 -1.569999999999999944e-04 3.770000000000000022e-04 -5.000000000000000409e-06 -8.411999999999999339e-03 1.235999999999999903e-03 -4.150000000000000043e-04 -3.770000000000000022e-04 4.490000000000000176e-04 -4.500000000000000283e-05 -7.805000000000000306e-03 1.649000000000000075e-03 -1.200000000000000030e-04 8.059999999999999457e-03 -2.186000000000000009e-03 -9.100000000000000287e-05 7.611999999999999843e-03 -1.291000000000000047e-03 6.999999999999999895e-06 -5.000000000000000240e-05 7.380000000000000492e-04 1.129999999999999955e-04 -8.304000000000000617e-03 1.543000000000000101e-03 5.039999999999999992e-04 -3.480000000000000020e-04 4.870000000000000197e-04 1.679999999999999907e-04 -7.898000000000000506e-03 1.802999999999999915e-03 -8.299999999999999815e-05 7.734000000000000423e-03 -1.920999999999999965e-03 1.699999999999999987e-05 7.432000000000000238e-03 -1.626000000000000058e-03 1.299999999999999920e-05 -2.709999999999999735e-04 3.029999999999999924e-04 1.200000000000000030e-05 -8.410000000000000808e-03 1.353000000000000036e-03 8.000000000000000654e-05 2.120000000000000031e-04 1.564000000000000069e-03 3.800000000000000209e-05 -8.049999999999999864e-03 1.015000000000000060e-03 9.399999999999999448e-05 7.851999999999999605e-03 -5.000000000000000240e-05 -8.000000000000000654e-05 7.564999999999999676e-03 -9.979999999999999722e-04 3.350000000000000113e-04 1.930000000000000021e-04 8.980000000000000352e-04 1.769999999999999926e-04 -6.931999999999999794e-03 9.309999999999999699e-04 2.099999999999999884e-05 -2.500000000000000052e-04 1.299000000000000024e-03 5.700000000000000314e-05 -7.981000000000000247e-03 1.041000000000000042e-03 -2.199999999999999943e-05 7.860999999999999932e-03 5.640000000000000482e-04 4.600000000000000004e-05 7.971999999999999920e-03 -1.072000000000000036e-03 -9.299999999999999727e-05 -1.479999999999999925e-04 1.513000000000000022e-03 1.299999999999999886e-04 -6.804000000000000152e-03 1.021999999999999905e-03 -9.200000000000000007e-05 -3.009999999999999980e-04 1.404999999999999999e-03 3.000000000000000076e-05 -7.879000000000000586e-03 1.080999999999999930e-03 -1.100000000000000039e-04 7.557999999999999614e-03 -4.249999999999999763e-04 -6.000000000000000152e-06 7.972999999999999185e-03 -1.211999999999999970e-03 -3.280000000000000038e-04 2.139999999999999975e-04 1.121999999999999950e-03 -3.600000000000000091e-05 -6.936000000000000325e-03 1.185999999999999988e-03 7.700000000000000139e-05 2.770000000000000110e-04 1.054000000000000032e-03 1.179999999999999951e-04 -8.233000000000000734e-03 1.098999999999999934e-03 9.999999999999999547e-07 8.479000000000000425e-03 1.759999999999999954e-04 -1.330000000000000073e-04 8.111999999999999419e-03 5.259999999999999919e-04 1.999999999999999909e-06 -7.519999999999999558e-04 4.920000000000000328e-04 2.039999999999999984e-04 -7.924000000000000488e-03 7.320000000000000118e-04 -1.190000000000000058e-04 1.479999999999999925e-04 6.120000000000000223e-04 -3.300000000000000253e-05 -8.148000000000000728e-03 1.508000000000000009e-03 -1.999999999999999909e-06 8.037000000000000741e-03 -2.349999999999999930e-04 2.599999999999999840e-05 7.630999999999999762e-03 4.889999999999999599e-04 7.700000000000000139e-05 -1.510000000000000112e-04 7.320000000000000118e-04 1.019999999999999992e-04 -7.903999999999999568e-03 1.088999999999999907e-03 7.600000000000000418e-05 3.589999999999999984e-04 7.069999999999999462e-04 1.730000000000000038e-04 -8.205999999999999753e-03 1.520000000000000084e-03 -1.389999999999999905e-04 8.387000000000000358e-03 -1.810000000000000085e-04 -4.300000000000000165e-05 7.832999999999999685e-03 3.739999999999999835e-04 4.500000000000000283e-05 -7.590000000000000175e-04 5.220000000000000031e-04 -1.140000000000000063e-04 -7.846999999999999809e-03 8.350000000000000217e-04 2.500000000000000120e-05 1.190000000000000058e-04 1.859999999999999945e-04 1.079999999999999960e-04 -7.926000000000000753e-03 1.389999999999999960e-03 -2.799999999999999958e-05 7.716999999999999901e-03 -1.244000000000000097e-03 -7.899999999999999579e-05 7.830000000000000154e-03 -9.100000000000000016e-04 -8.700000000000000051e-05 -9.899999999999999404e-05 -1.430000000000000064e-04 -3.600000000000000091e-05 -7.308000000000000260e-03 6.579999999999999478e-04 -5.569999999999999864e-04 2.169999999999999891e-04 -4.389999999999999914e-04 -8.000000000000000654e-05 -7.929999999999999549e-03 1.649000000000000075e-03 -2.799999999999999958e-05 7.978999999999999981e-03 -1.703000000000000087e-03 -1.900000000000000105e-04 7.797000000000000111e-03 -1.920999999999999965e-03 -9.000000000000000228e-06 2.000000000000000164e-05 2.290000000000000098e-04 9.600000000000000243e-05 -7.411000000000000053e-03 1.191999999999999917e-03 4.510000000000000120e-04 2.480000000000000108e-04 -3.869999999999999742e-04 1.450000000000000009e-04 -7.939999999999999142e-03 1.595000000000000064e-03 -5.300000000000000078e-05 7.625999999999999966e-03 -1.485999999999999908e-03 1.939999999999999993e-04 7.735999999999999821e-03 -2.167999999999999788e-03 1.340000000000000045e-04 -8.000000000000000654e-05 -1.930000000000000021e-04 2.090000000000000115e-04 -7.365000000000000019e-03 9.290000000000000297e-04 -3.000000000000000076e-06 4.679999999999999915e-04 4.409999999999999858e-04 1.900000000000000105e-05 -8.512999999999999734e-03 2.919999999999999961e-04 8.500000000000000611e-05 8.408000000000000543e-03 -1.659000000000000101e-03 -1.869999999999999917e-04 7.647000000000000151e-03 -1.433000000000000029e-03 4.119999999999999856e-04 -3.420000000000000188e-04 -5.220000000000000031e-04 9.699999999999999963e-05 -7.507999999999999917e-03 5.699999999999999772e-04 5.399999999999999798e-05 -2.799999999999999958e-05 2.059999999999999928e-04 1.630000000000000047e-04 -8.418999999999999401e-03 2.200000000000000078e-04 -7.499999999999999343e-05 8.309000000000000413e-03 -7.799999999999999859e-04 6.700000000000000226e-05 8.023999999999999883e-03 -1.567000000000000033e-03 -1.010000000000000020e-04 -5.140000000000000254e-04 1.410000000000000120e-04 1.060000000000000016e-04 -7.478000000000000272e-03 7.010000000000000172e-04 -1.039999999999999936e-04 -2.290000000000000098e-04 1.510000000000000112e-04 -2.900000000000000017e-05 -8.323999999999999802e-03 4.200000000000000174e-04 -1.900000000000000105e-04 8.182000000000000037e-03 -1.843000000000000020e-03 5.399999999999999798e-05 8.089000000000000704e-03 -1.626000000000000058e-03 -4.240000000000000062e-04 -2.090000000000000115e-04 -3.660000000000000059e-04 -8.600000000000000331e-05 -7.461999999999999883e-03 6.700000000000000226e-04 4.899999999999999842e-05 -5.000000000000000104e-04 -2.759999999999999867e-04 1.459999999999999981e-04 -7.333000000000000108e-03 -3.000000000000000076e-06 -7.499999999999999343e-05 8.578000000000000555e-03 -1.881000000000000076e-03 -5.000000000000000409e-06 7.993000000000000105e-03 -1.345999999999999974e-03 -3.999999999999999819e-06 -2.099999999999999884e-05 -7.900000000000000121e-04 2.860000000000000129e-04 -8.281999999999999432e-03 -1.520000000000000084e-04 -1.250000000000000026e-04 -7.020000000000000415e-04 -5.829999999999999679e-04 9.100000000000000287e-05 -7.328000000000000312e-03 4.609999999999999840e-04 -6.600000000000000506e-05 7.981000000000000247e-03 -2.746999999999999876e-03 2.400000000000000061e-05 7.575000000000000136e-03 -1.307000000000000002e-03 -1.399999999999999979e-05 6.530000000000000431e-04 -4.270000000000000249e-04 8.700000000000000051e-05 -8.269999999999999574e-03 6.200000000000000270e-05 9.699999999999999963e-05 -7.309999999999999875e-04 -4.380000000000000213e-04 8.899999999999999491e-05 -7.341000000000000303e-03 4.719999999999999803e-04 -5.199999999999999680e-05 8.380000000000000296e-03 -2.266999999999999918e-03 -1.649999999999999991e-04 7.460999999999999750e-03 -1.435000000000000078e-03 1.350000000000000017e-04 9.699999999999999963e-05 -7.450000000000000025e-04 -1.510000000000000112e-04 -8.344999999999999987e-03 -2.069999999999999900e-04