-4.110854731289210768e-04 -8.207109908025566388e-04 -1.207040052160795462e-01 5.913811174526212559e-06 -1.692970458001766092e-03 2.084024245341373378e-03 4.169148080959217753e-04 -8.247117383675380085e-04 -1.207109714424972474e-01 2.914999957919611170e-06 3.202960088450397292e-05 2.087999666533120902e-03 -9.741304898950636695e-04 2.504620246987471522e-05 3.204959980467562888e-03 9.668697058306829385e-04 1.704461178616572159e-05 3.200039133066336170e-03 4.918701756850920627e-04 8.240450403391663898e-04 3.204008349203218801e-03 -4.861297788650472394e-04 8.290457919311074305e-04 3.202968453322939564e-03 -9.083284280985336136e-06 1.650029454161595823e-03 2.076976238271843137e-03 -3.713669120992206090e-05 1.104762382878317211e-05 3.356998334252448996e-03 8.876991762724163474e-06 6.404283824417030500e-05 3.021999456301551704e-03 1.786421635654348729e-05 2.604726885098443347e-05 3.335000361253258935e-03 -2.812372871947639872e-05 -7.595692010392786537e-05 3.036999934503002187e-03 2.688045218565980653e-05 -4.095840930737188715e-05 2.935001678022911269e-03 -1.011941621825051276e-05 -2.895842287110994749e-05 2.932000001221046846e-03 -5.612362528953421237e-05 4.043087634104222450e-06 3.035997660099023100e-03 3.487659547780714908e-05 2.604294549025936380e-05 3.031001053790326107e-03 1.587720317187197295e-05 2.204274770065912516e-05 3.016000336819152881e-03 3.386401195549954441e-05 2.504732721212356593e-05 3.340001026959992826e-03 -3.712327916566206010e-05 3.004295933219325527e-05 3.027998065180780539e-03 -4.137813398622382138e-06 3.404799496586153267e-05 3.384999351925947232e-03 9.877167132467967758e-06 -2.395724759672661388e-05 3.016000744671165461e-03 -3.124184480205079501e-06 -3.395676954952148288e-05 3.049000357047059080e-03 -2.112405133272701936e-05 -1.995679799038812722e-05 3.045999425585839328e-03 -6.119052059747151929e-06 2.004146056960276378e-05 2.923999469401478233e-03 -2.120665250176784059e-06 -1.195798962513672855e-05 2.963000085937059040e-03 2.874891472674052067e-06 -1.795644815981804879e-05 3.072000374506569497e-03 4.350915674626659670e-04 -6.903224063593908473e-05 -2.249981306072488391e-03 -4.169089721716341158e-04 -8.303138921046314630e-05 -2.237015801761036218e-03 -2.928418495599368620e-06 -5.270250639400860578e-04 -1.767992648837676210e-03 4.510030034287914626e-05 5.259651865801202603e-04 -2.453005622784978391e-03 9.127100729221073727e-06 6.595575822484780429e-05 -3.120000566344381925e-03 -4.589986403215246837e-05 5.239653145441535700e-04 -2.449009300030621696e-03 2.310911373502015591e-05 -1.790380570158258333e-04 -2.682996523106651304e-03 1.711170573353464400e-04 -1.230409233972028454e-04 -2.876991290195097736e-03 -1.838825899869792058e-04 -1.410407730319111525e-04 -2.886005490889135845e-03 4.310823713850425905e-03 -2.652942722620411139e-03 4.278213157218819888e-03 -4.311176583633703763e-03 -2.677935872380467121e-03 4.284862416478072041e-03 5.508190880496747555e-06 -4.966830125853204797e-03 1.198207065413780040e-02 1.163695106806186472e-03 5.645106782556972777e-03 7.595967358534697934e-03 -2.512858009601826972e-05 1.320045147364473865e-03 3.182980264372033564e-03 -1.128304090980351186e-03 5.627108293630069501e-03 7.575874281562273299e-03 3.414026534337469526e-05 1.849511875656357238e-04 -3.441001235178555405e-03 -1.659961703521896717e-04 -1.245001542876980703e-03 -1.179891082360760786e-04 1.400044159408172671e-04 -1.224001980965056750e-03 -1.319769453756528541e-04 3.711848191729426430e-05 -7.204130052590167351e-05 -2.910997469823478102e-03 -5.588004265244926079e-05 -6.004173810910199278e-05 -2.947001426962327780e-03 2.312090874924464627e-05 -4.104212605700708163e-05 -2.969998479371214768e-03 -3.788124702898077931e-05 1.395868730116341496e-05 -2.916001743170322253e-03 1.511821256113073666e-05 -5.204118405743492768e-05 -2.903998649243978974e-03 3.211963469210002610e-05 4.795833475430228495e-05 -2.936999374735179986e-03 -2.588175760409003288e-05 3.795886221412979637e-05 -2.903001594798516969e-03 -2.788088287545381313e-05 6.295856604389918766e-05 -2.924002030664783845e-03 6.211825956153948852e-05 5.995879330825021775e-05 -2.902998323274415000e-03 -6.700443467306794977e-05 -1.509984446777265326e-04 1.059994124467213069e-04 -1.340063611090984246e-04 -3.229977683766484925e-04 1.499991226841105088e-04 1.720000897684436617e-04 -3.010002480673575065e-04 -7.988728499367525474e-06 1.990017524231981838e-04 5.399924871091589198e-05 -4.199266211081188391e-05 -2.180009762858149268e-04 1.050005393052562327e-04 2.598963416512295986e-05 3.500568690915640798e-05 2.419980585683641303e-04 -1.350020056634741988e-04 -2.300638759284722476e-05 1.630022864397374168e-04 1.599967522962434253e-04 1.099004062369052614e-05 2.200346494468841777e-05 2.450001357908144031e-04 3.799535554192630849e-05 2.050016432053325670e-04 1.179986408411390429e-04 6.702084343872898010e-05 -1.826007807530724298e-03 -5.469713825983937676e-04 -1.607313711341629451e-03 -3.480890465551063784e-03 7.636983907287541937e-03 1.525684246883565265e-03 -3.484892209787848836e-03 7.687111542378664494e-03 2.259687094830053339e-03 2.333107810373856623e-03 7.729058945216488001e-03 -2.216309538107855658e-03 2.260110124137199288e-03 7.644877713741709407e-03 -5.464595576694891807e-05 2.545225639105046581e-03 1.591196170387424585e-02 9.170235514223771525e-04 1.370991455711272110e-03 -5.519820961801012249e-04 -4.197863845384747884e-05 -1.009007679733120184e-03 -5.439874044067069146e-04 -8.789767071095113066e-04 1.298992932868603227e-03 -5.470542100343850096e-04 -3.498561060156939916e-05 7.099503681373999767e-05 -3.520024315237765865e-04 4.101887019494441513e-05 7.299341774834055576e-05 -4.619993649923628777e-04 -1.698609926657874497e-05 7.099519285335354672e-05 -3.400016985596117261e-04 -1.898952535045794740e-05 -4.000364299024429662e-05 -2.580002063457961185e-04 2.701492261081405707e-05 2.399478978358137642e-05 -3.659992404631100802e-04 -1.798455427451200566e-05 -3.600537346467800448e-05 -3.800002222225878998e-04 -1.698783858404087993e-05 -7.000424002061750610e-05 -2.999996995321467389e-04 3.701113632299115968e-05 -2.700391368406537994e-05 -2.739981102741850891e-04 -4.098797091311064394e-05 -8.300417869401313892e-05 -2.970004925244373135e-04 -2.937474030807527350e-02 1.693563354981836647e-02 4.306256376598360802e-02 2.942125916388713819e-02 1.689558766873616377e-02 4.307595855624617859e-02 -5.971226414334899883e-05 3.386895361137703953e-02 6.725751744389545095e-02 2.572244899611769524e-04 -3.372639122055170330e-02 4.295348868019985278e-02 -5.758355019525967853e-06 2.982641220347604055e-04 1.862899555410474361e-02 -2.587802324946831319e-04 -3.382938920024662621e-02 4.306746912844434255e-02 5.423671131557416462e-05 3.026571970627064300e-05 1.874500179688858709e-02 -3.775857921990906260e-05 -2.477359237432963856e-04 1.862400199210101012e-02 -1.476076643572489131e-05 -2.847351903253236881e-04 1.867700345320856201e-02 -1.288673749175821531e-04 2.530210144001962883e-05 2.130099441348559663e-02 1.821354565024928067e-04 5.330087965751235338e-05 2.123200668075705955e-02 -4.387663264814256413e-05 1.633052957643679217e-04 2.153099591801277413e-02 -4.787437358415638360e-05 -1.756955800927848877e-04 2.146900056144881996e-02 4.312993733933895909e-05 -2.669711167337838830e-05 2.136600215465526281e-02 1.412683545244535665e-05 -1.916960539707944565e-04 2.143900331301369297e-02 -2.853234704147287757e-06 3.829708308620239716e-05 2.095399936032448299e-02 -2.785975155997976279e-05 8.829938528111918575e-05 2.111499763326536369e-02 4.913731409997382791e-05 3.330033161943060860e-05 2.118600154848189129e-02 2.112885826781611600e-05 -6.967116496092500956e-07 2.139300089014958828e-02 -1.068725261345810550e-04 -6.961293810589413750e-07 2.142699567784904155e-02 8.713761711154559655e-05 4.300188446137308854e-06 2.117800350703680917e-02 7.013365312482283459e-05 3.830159117758996591e-05 2.127600233264728344e-02 -2.987281670435804011e-05 4.430392374606343921e-05 2.143499817534778168e-02 -3.786749240417403684e-05 1.353021010652569796e-04 2.130599655952441704e-02 -7.788005951403576877e-05 -6.935291958052675875e-07 2.161199685858174527e-02 -4.387914808722933268e-05 -1.366939102488482882e-04 2.158700017128975523e-02 9.612339375233339264e-05 -6.269488472128732629e-05 2.152600482311112229e-02 5.247293699952688354e-04 -2.352544196480224484e-04 -1.791597531384491598e-02 7.862346565430450627e-06 -4.663003762065601036e-04 -2.118599308842179438e-02 -5.502715320487489882e-04 -2.962532801873026781e-04 -1.789501822393581645e-02 2.386458386346889518e-05 1.193699285008861018e-03 -2.120901597195415031e-02 8.485937205413302128e-05 6.227008961057163344e-04 -2.109200539258805629e-02 -9.813787288128874632e-05 6.047000753057427689e-04 -2.116001258924085637e-02 4.698531174894238997e-04 -3.432974912480457716e-04 -2.095697601946636471e-02 -4.041509405739135527e-04 -3.782954033041361903e-04 -2.085801111336054933e-02 -3.913905605124492988e-05 -7.492999282211457081e-04 -2.115699099002169362e-02 6.673254889226021367e-05 1.274745244100018932e-03 -1.796501537237200907e-02 3.991432893614475872e-05 2.576682329876040824e-03 -2.240403492715653880e-02 -1.052698182588180547e-04 1.267746201088194424e-03 -1.790702227716797421e-02 1.910863571866973250e-06 -1.118317441508471458e-03 -2.238998408772588378e-02 1.164801432689190714e-03 -5.112800863245080046e-04 -1.969094533778744521e-02 -1.175201022749717975e-03 -5.812774176165198684e-04 -1.963203963219046361e-02 -1.058137835148032771e-03 -7.512995556817219679e-04 -2.118703245618556996e-02 1.084860996274525109e-03 -7.333008224882333259e-04 -2.115794544662832552e-02 -2.809009115464939781e-05 -1.453317176962293754e-03 -2.237298055981646119e-02 5.386332721154544551e-05 5.769938923365640522e-05 -2.119999864439768567e-02 -9.213394434610006371e-05 1.096985678113589994e-04 -2.126600532682429434e-02 2.386737116174568658e-05 1.256980232927403104e-04 -2.129800083002003630e-02 -3.133845839545200288e-06 -7.630158692332012578e-05 -2.127199906559896353e-02 2.865020999138146136e-06 -1.193012088164873644e-04 -2.124499821165512850e-02 -1.713459209882176696e-05 -4.130130658679043631e-05 -2.125300013193026291e-02 -7.313243147215297277e-05 1.369800001009077123e-05 -2.130500319202657811e-02 -3.129582663538480412e-06 -4.030306141766711861e-05 -2.137599957590177041e-02 7.086944154207260049e-05 -3.830277909249556195e-05 -2.135199659093662411e-02
-4.060856007806025523e-04 -8.277109521834456448e-04 -1.207010049132337254e-01 -6.085625775922211171e-06 -1.701970647094039942e-03 2.070023884304045617e-03 4.149148065304335904e-04 -8.267117368013440510e-04 -1.207109714955834218e-01 -4.084141764340400395e-06 3.602930863137118891e-05 2.066999324795630848e-03 -9.721298446318702661e-04 1.704597405996307981e-05 3.188960175346246435e-03 9.668699924437099786e-04 1.904451254139655797e-05 3.193039104717316362e-03 4.948705484387517801e-04 8.320449103892131170e-04 3.195008357952030913e-03 -5.061293708564857307e-04 8.300456658129762169e-04 3.192967624737449821e-03 1.916962385651791274e-06 1.653029360481563523e-03 2.070976643673492525e-03 -3.013613128544172012e-05 5.004743403253871404e-05 3.343998066377716193e-03 -8.123197723053324852e-06 8.204292244226716777e-05 3.026998508842692736e-03 2.986370107999330648e-05 4.404744376455568095e-05 3.348000594691645168e-03 5.877116987082392506e-06 -8.795724445829004835e-05 3.016001489164623229e-03 1.288089855936455806e-05 -4.295855430097307955e-05 2.924001136296748050e-03 -2.611914291270233448e-05 -4.395850958622682104e-05 2.924999562360388466e-03 -4.412374667843356485e-05 5.043120771435630006e-06 3.038998134568684107e-03 4.587628769917254253e-05 -2.956963875207275901e-06 3.038001912868321542e-03 -7.123216554627732261e-06 6.042907489137326641e-06 3.025999627074496632e-03 -1.913669044127778068e-05 1.204760973475155498e-05 3.356999053050005628e-03 1.587693144674117365e-05 3.904284694351287051e-05 3.023000095790666711e-03 -3.135919892881912140e-06 8.047327829104404496e-06 3.337999761312339473e-03 -8.123430344453721642e-06 -6.957020837579151725e-06 3.030999770659922529e-03 1.687633706337351186e-05 8.043044652776956736e-06 3.037000576009171119e-03 -1.512346322375306081e-05 3.042998820181187844e-06 3.031999343835400321e-03 -2.611916796207260701e-05 -2.395849541044768773e-05 2.925999278804189679e-03 1.888153522491340503e-05 -9.958771669207240889e-06 2.909000912769604385e-03 -5.122297215582987179e-06 -1.595742016393048631e-05 3.003000020448376092e-03 4.310903544600915623e-04 -5.803181217120249082e-05 -2.219981624939179176e-03 -4.359093566406444832e-04 -5.403123255850608107e-05 -2.227016986621643824e-03 9.072226000707947190e-06 -4.840252860073052566e-04 -1.782992769817348059e-03 5.409981011818742937e-05 5.239653496669008370e-04 -2.441005227952946881e-03 -2.873566465736048877e-06 4.595599446754370331e-05 -3.104000771454199555e-03 -4.189998541441660991e-05 5.249653539454540675e-04 -2.446009151327769183e-03 -4.891183041239025565e-06 -1.940379358458537589e-04 -2.675997450630537497e-03 1.571180440250188014e-04 -1.630412668761082890e-04 -2.901991293153235226e-03 -1.448820645662730769e-04 -1.460409878795968690e-04 -2.899003831875040030e-03 4.323823400585118104e-03 -2.688942633551164810e-03 4.285214196982862177e-03 -4.319176787231268112e-03 -2.677935795227521197e-03 4.289862090706616018e-03 2.507565966062009090e-06 -4.984829910835470064e-03 1.199707078716104672e-02 1.140694911056797534e-03 5.655106871453853545e-03 7.600966280172839588e-03 1.487130084257963874e-05 1.324045158577610718e-03 3.185981836492235778e-03 -1.146305530274163795e-03 5.661108818121205963e-03 7.611873066509529558e-03 -1.086006195316937012e-05 1.829513362230272746e-04 -3.433003039268765332e-03 -1.509958657294134369e-04 -1.220001653869010874e-03 -1.249888518608888253e-04 1.680040047913265147e-04 -1.229001861110491254e-03 -1.219757343123002122e-04 4.311824463943918890e-05 -6.304122015801373559e-05 -2.904997353103820363e-03 -3.288224864904746583e-05 -6.904099051615664780e-05 -2.893000362833079726e-03 -2.881539964606044856e-06 -4.804125503067955421e-05 -2.909999438924775351e-03 -3.488189072917428408e-05 2.395891179589264394e-05 -2.900001762800276644e-03 -1.882959709821433994e-06 -4.104075959154367635e-05 -2.874999497480804425e-03 4.511785782727226440e-05 1.495893422387965239e-05 -2.893998377537893799e-03 1.211730813579296300e-05 4.095915854926678598e-05 -2.880000089960845378e-03 -3.388304107499801781e-05 6.295932216503037572e-05 -2.871002275039159085e-03 2.811728699101972661e-05 6.595916019660337493e-05 -2.878999792872243696e-03 -1.500118488473071696e-05 -1.609996196161475829e-04 2.600167178298191101e-05 -1.359967361013006719e-04 -3.040011127722773345e-04 -8.600122791571237731e-05 1.410034304701829691e-04 -2.990013863738980645e-04 -8.999001912505201679e-05 1.920016529901150441e-04 8.299929672235153283e-05 -3.899335831469904893e-05 -1.959972840283699701e-04 8.799923190167654107e-05 -6.500922886958006731e-05 1.000843949196896076e-05 2.209971140553003996e-04 -2.030027258885066166e-04 -2.300214714047162866e-05 1.700008119483139885e-04 5.599665314857738197e-05 1.996598253543933629e-06 2.400118936639872427e-05 8.399974109729275247e-05 3.099798359656916435e-05 1.810007271320265550e-04 5.299869612192833991e-05 -9.977042148020568864e-06 -1.830008484484976165e-03 -5.989744613445367391e-04 -1.574311023009985740e-03 -3.479891427124531637e-03 7.570985236959218434e-03 1.580688690894523898e-03 -3.477893798233037959e-03 7.578113682882457215e-03 2.225692309451513494e-03 2.284106008065063965e-03 7.600058255537878865e-03 -2.229307599926814640e-03 2.291109467956642127e-03 7.597876744903669065e-03 3.595493365704871061e-07 2.555223682036875891e-03 1.577696380186891650e-02 8.750248654691398934e-04 1.332991020733694442e-03 -5.849832676701596573e-04 3.022019310857591203e-06 -1.001007941813479574e-03 -5.599856853756408296e-04 -8.789754964293584969e-04 1.336992521708707006e-03 -5.760547487624385508e-04 -1.398961458205720312e-05 5.399640979648009806e-05 -2.540013354550248788e-04 4.601160150836472733e-05 4.699593748355553399e-05 -2.839987929317256917e-04 -3.598957462654387497e-05 5.299641284470099016e-05 -2.550022171350564042e-04 -1.999095995692947182e-05 -3.131810647516239213e-09 -2.220008142106514855e-04 1.801011677558382351e-05 2.299646981050045114e-05 -2.479995928826992562e-04 -1.988373427435120561e-06 -2.500405328096128409e-05 -2.859997267317504043e-04 1.100890685982895574e-05 -6.600312772128406782e-05 -2.199986161337372410e-04 7.007555264672626292e-06 -2.400264254849117506e-05 -1.859993745148136714e-04 -2.799097329602486875e-05 -6.900313971751764221e-05 -2.230001617108515774e-04 -2.923173165115996661e-02 1.681063038963651404e-02 4.284757136148561324e-02 2.922826847577383869e-02 1.682658455896844651e-02 4.284595167560139445e-02 -2.700488107070601863e-06 3.372294942684472829e-02 6.696552183520887436e-02 2.242309490055831420e-04 -3.359039340646261668e-02 4.279748540838095722e-02 1.324419627331337985e-05 2.802632139585401177e-04 1.856599658305922024e-02 -2.427695846794480786e-04 -3.359639285649146379e-02 4.281046647679798145e-02 -8.760756887931540614e-06 3.926489001080863854e-05 1.868299910393272922e-02 -3.675863247875426861e-05 -2.637359103468842145e-04 1.862500225966514517e-02 4.624111685877755772e-05 -2.717358902679864463e-04 1.863100575291231839e-02 -1.348575040142797746e-04 4.629867510940161945e-05 2.105899387165241846e-02 1.351425740691682750e-04 4.229843534525203590e-05 2.105700492299513241e-02 6.130288286042390247e-06 1.613028463895500213e-04 2.136099798256889046e-02 -1.386582145238011173e-05 -1.746985840517812629e-04 2.125900193197520840e-02 -1.861427454535165093e-06 -2.370008213147081053e-05 2.115400027988074624e-02 1.813454657578616330e-05 -1.726987367080181496e-04 2.125000320669528583e-02 4.155114629396219836e-06 4.029417115697821585e-05 2.074899961720547831e-02 -3.385299192054279442e-05 3.629702229251266575e-05 2.094799812633920191e-02 3.414697278723239434e-05 4.329698322586375027e-05 2.094900079611180035e-02 2.314244962383926887e-05 -1.270144859804313807e-05 2.105900114203494017e-02 -2.185788394129268425e-05 -2.270129993984510141e-05 2.106699945136683572e-02 -2.848486845890502204e-06 -3.470458988629123332e-05 2.083600039541090576e-02 5.614601505816250174e-05 6.829730626451675855e-05 2.097300133750413034e-02 2.139224909123539154e-06 8.129971623682428019e-05 2.113999895411200133e-02 -5.685443199378192083e-05 6.929755069873055158e-05 2.098399672185996545e-02 4.131707957143226215e-06 -1.697690784249213281e-06 2.132300021213795818e-02 -1.486472115533427979e-05 -6.969893772425438886e-05 2.123400040261243238e-02 -8.648049593463668639e-07 -7.269892033030742062e-05 2.123600101523578226e-02 5.467147143924853915e-04 -2.302493328681112187e-04 -1.755597448920966086e-02 -4.153818030954294756e-06 -4.642947382260486744e-04 -2.078899360579658517e-02 -5.492860176736123149e-04 -2.302482195040077523e-04 -1.753801911927922036e-02 -1.115211635334769331e-05 1.187705125310430272e-03 -2.079901731249849534e-02 6.984561153196281098e-05 5.747056857725350116e-04 -2.075500532318145033e-02 -5.915445961626926847e-05 5.877058151333193481e-04 -2.075301076048403220e-02 4.798351086833895613e-04 -3.562912324911462428e-04 -2.051497542835780882e-02 -4.781659140280598505e-04 -3.632901279352391166e-04 -2.049001433971207528e-02 9.845857632954399966e-06 -7.222947066285993365e-04 -2.078598937784448264e-02 1.117234634061737322e-04 1.268748370514162635e-03 -1.774201345507443045e-02 -1.095050927375226149e-06 2.558685622873631792e-03 -2.217403634172549973e-02 -1.102764502665784974e-04 1.274748515983113901e-03 -1.774402258016809925e-02 9.022511275246238133e-07 -1.092314435035479474e-03 -2.217798449726566049e-02 1.164790574304249088e-03 -5.452763150275137614e-04 -1.942494485599076393e-02 -1.166208245992352965e-03 -5.492749010191365659e-04 -1.945403971955670178e-02 -1.054146619882764205e-03 -7.372964964113195175e-04 -2.097103249199164590e-02 1.050852889721268354e-03 -7.372979744846834159e-04 -2.095894677461119723e-02 4.901914212588888557e-06 -1.470314423951561917e-03 -2.217697897518859304e-02 -1.513915905318710307e-05 5.470030810621075276e-05 -2.113900141165982877e-02 -1.313707678200959501e-05 1.136995976445024194e-04 -2.118900216665969144e-02 2.086027944450269411e-05 6.570047840637530372e-05 -2.112500010167760178e-02 4.862969308990352523e-06 -8.730048731814210540e-05 -2.119399858394926603e-02 2.786173985396025503e-05 -4.530006581963152062e-05 -2.116299824286457451e-02 -4.013830081048054983e-05 -4.529999839809756155e-05 -2.116200101188337943e-02 -6.713598986168011764e-05 -6.300771217673333568e-06 -2.121800266422707582e-02 5.686395991175242155e-05 -1.830085413019156648e-05 -2.121699744470930543e-02 5.863140052237186855e-06 -2.530053064077467307e-05 -2.119699942224696071e-02