-1.412881091799999922e+03
-1.412881093310000097e+03
-1.412881096049999996e+03
-1.412881100439999955e+03
-1.412881106260000024e+03
