2.175710000000000033e+00 3.743799999999999795e+00 4.067280000000000229e+00 6.421900000000000386e-01 4.303880000000000372e+00 1.903769999999999962e+00 1.690800000000000081e+00 1.367830000000000101e+00 1.903790000000000093e+00 4.829130000000000145e+00 3.743809999999999860e+00 4.067280000000000229e+00 3.295599999999999863e+00 4.303880000000000372e+00 1.903759999999999897e+00 4.344219999999999970e+00 1.367830000000000101e+00 1.903799999999999937e+00 7.482540000000000191e+00 3.743799999999999795e+00 4.067289999999999850e+00 5.948999999999999844e+00 4.303889999999999993e+00 1.903769999999999962e+00 6.997620000000000395e+00 1.367839999999999945e+00 1.903790000000000093e+00 1.487570000000000059e+00 5.505560000000000009e+00 7.898340000000000138e+00 2.536189999999999944e+00 2.569500000000000117e+00 7.898369999999999891e+00 4.140979999999999883e+00 5.505560000000000009e+00 7.898329999999999629e+00 5.189589999999999925e+00 2.569500000000000117e+00 7.898369999999999891e+00 6.794389999999999930e+00 5.505550000000000388e+00 7.898329999999999629e+00 7.843009999999999593e+00 2.569500000000000117e+00 7.898369999999999891e+00 3.021100000000000119e+00 4.945479999999999876e+00 1.006185999999999936e+01 5.674520000000000231e+00 4.945470000000000255e+00 1.006184999999999974e+01 8.327930000000000277e+00 4.945470000000000255e+00 1.006184999999999974e+01 3.866490000000000204e+00 6.147149999999999892e+00 1.605643999999999849e+01 2.332959999999999923e+00 6.707239999999999647e+00 1.389291000000000054e+01 3.381580000000000030e+00 3.771180000000000199e+00 1.389295000000000080e+01 6.519910000000000316e+00 6.147140000000000271e+00 1.605642999999999887e+01 4.986369999999999969e+00 6.707239999999999647e+00 1.389292000000000016e+01 6.034989999999999633e+00 3.771170000000000133e+00 1.389293999999999940e+01 9.173320000000000363e+00 6.147140000000000271e+00 1.605642999999999887e+01 7.639780000000000015e+00 6.707239999999999647e+00 1.389291000000000054e+01 8.688409999999999300e+00 3.771180000000000199e+00 1.389295000000000080e+01 9.087360000000000326e+00 6.679870000000000196e+00 4.067289999999999850e+00 2.731939999999999813e+00 9.615919999999999135e+00 4.067289999999999850e+00 2.247020000000000017e+00 7.239950000000000330e+00 1.903790000000000093e+00 3.780530000000000168e+00 6.679879999999999818e+00 4.067289999999999850e+00 5.385349999999999859e+00 9.615919999999999135e+00 4.067280000000000229e+00 4.900430000000000064e+00 7.239959999999999951e+00 1.903790000000000093e+00 6.433950000000000280e+00 6.679879999999999818e+00 4.067289999999999850e+00 8.038759999999999906e+00 9.615930000000000533e+00 4.067289999999999850e+00 7.553840000000000110e+00 7.239969999999999573e+00 1.903790000000000093e+00 3.092410000000000103e+00 8.441639999999999588e+00 7.898369999999999891e+00 5.745809999999999640e+00 8.441649999999999210e+00 7.898380000000000400e+00 8.399240000000000705e+00 8.441629999999999967e+00 7.898369999999999891e+00 9.932750000000000412e+00 7.881549999999999834e+00 1.006185999999999936e+01 3.577329999999999899e+00 1.081760000000000055e+01 1.006185999999999936e+01 4.625910000000000188e+00 7.881560000000000343e+00 1.006185999999999936e+01 6.230730000000000324e+00 1.081760000000000055e+01 1.006185999999999936e+01 7.279340000000000366e+00 7.881549999999999834e+00 1.006187000000000076e+01 8.884149999999999991e+00 1.081760000000000055e+01 1.006185999999999936e+01 1.077814000000000050e+01 9.083239999999999981e+00 1.605642999999999887e+01 4.422710000000000363e+00 1.201928000000000019e+01 1.605643999999999849e+01 3.937790000000000123e+00 9.643309999999999604e+00 1.389293999999999940e+01 5.471309999999999896e+00 9.083230000000000359e+00 1.605643999999999849e+01 7.076120000000000410e+00 1.201928999999999981e+01 1.605641999999999925e+01 6.591199999999999726e+00 9.643309999999999604e+00 1.389293999999999940e+01 8.124729999999999563e+00 9.083230000000000359e+00 1.605643999999999849e+01 9.729549999999999699e+00 1.201928000000000019e+01 1.605642999999999887e+01 9.244619999999999393e+00 9.643319999999999226e+00 1.389293999999999940e+01 1.198409999999999975e+00 1.017601999999999940e+01 1.903769999999999962e+00 3.851809999999999956e+00 1.017601999999999940e+01 1.903759999999999897e+00 6.505239999999999689e+00 1.017600999999999978e+01 1.903759999999999897e+00 9.643570000000000420e+00 1.255199999999999960e+01 4.067280000000000229e+00 2.803230000000000111e+00 1.311209999999999987e+01 1.903799999999999937e+00 4.336750000000000327e+00 1.255199999999999960e+01 4.067289999999999850e+00 5.456640000000000157e+00 1.311208000000000062e+01 1.903799999999999937e+00 6.990160000000000373e+00 1.255199999999999960e+01 4.067280000000000229e+00 8.110049999999999315e+00 1.311209999999999987e+01 1.903780000000000028e+00 2.043789999999999996e+00 1.137768999999999942e+01 7.898329999999999629e+00 4.697189999999999976e+00 1.137768999999999942e+01 7.898340000000000138e+00 7.350609999999999644e+00 1.137767999999999979e+01 7.898329999999999629e+00 3.648620000000000196e+00 1.431376000000000026e+01 7.898369999999999891e+00 6.302039999999999864e+00 1.431377999999999950e+01 7.898360000000000269e+00 8.955439999999999401e+00 1.431376999999999988e+01 7.898369999999999891e+00 1.048896000000000051e+01 1.375369000000000064e+01 1.006185999999999936e+01 5.182129999999999903e+00 1.375369000000000064e+01 1.006187000000000076e+01 7.835560000000000080e+00 1.375369000000000064e+01 1.006185999999999936e+01 2.889170000000000016e+00 1.257938000000000045e+01 1.389291000000000054e+01 5.542600000000000193e+00 1.257935999999999943e+01 1.389291000000000054e+01 8.195999999999999730e+00 1.257937000000000083e+01 1.389292000000000016e+01 1.133435000000000059e+01 1.495537000000000027e+01 1.605645000000000167e+01 4.494010000000000282e+00 1.551543999999999990e+01 1.389292999999999978e+01 6.027529999999999610e+00 1.495536000000000065e+01 1.605643999999999849e+01 7.147409999999999819e+00 1.551543000000000028e+01 1.389293999999999940e+01 8.680939999999999657e+00 1.495537000000000027e+01 1.605643999999999849e+01 9.800840000000000884e+00 1.551543999999999990e+01 1.389293999999999940e+01 1.019979000000000013e+01 1.842414000000000129e+01 4.067280000000000229e+00 4.892960000000000420e+00 1.842414000000000129e+01 4.067280000000000229e+00 7.546380000000000088e+00 1.842414000000000129e+01 4.067280000000000229e+00 3.288159999999999972e+00 1.548807000000000045e+01 4.067280000000000229e+00 1.754620000000000068e+00 1.604814000000000007e+01 1.903769999999999962e+00 5.941569999999999574e+00 1.548806000000000083e+01 4.067280000000000229e+00 4.408019999999999605e+00 1.604815999999999931e+01 1.903759999999999897e+00 8.594989999999999242e+00 1.548807000000000045e+01 4.067289999999999850e+00 7.061440000000000161e+00 1.604814000000000007e+01 1.903769999999999962e+00 2.600000000000000089e+00 1.724981999999999971e+01 7.898329999999999629e+00 5.253409999999999691e+00 1.724982999999999933e+01 7.898349999999999760e+00 7.906830000000000247e+00 1.724981999999999971e+01 7.898340000000000138e+00 1.104518999999999984e+01 1.962581000000000131e+01 1.006185999999999936e+01 5.738360000000000127e+00 1.962583000000000055e+01 1.006185999999999936e+01 8.391759999999999664e+00 1.962582000000000093e+01 1.006185999999999936e+01 4.133549999999999613e+00 1.668973000000000084e+01 1.006187000000000076e+01 6.786950000000000038e+00 1.668973000000000084e+01 1.006185999999999936e+01 9.440369999999999706e+00 1.668973000000000084e+01 1.006184999999999974e+01 1.189056000000000068e+01 2.082748000000000133e+01 1.605645000000000167e+01 6.583739999999999704e+00 2.082750000000000057e+01 1.605643999999999849e+01 9.237170000000000769e+00 2.082748000000000133e+01 1.605643999999999849e+01 4.978930000000000078e+00 1.789140000000000086e+01 1.605642999999999887e+01 3.445399999999999796e+00 1.845148999999999972e+01 1.389291000000000054e+01 7.632340000000000124e+00 1.789142000000000010e+01 1.605643999999999849e+01 6.098799999999999777e+00 1.845148999999999972e+01 1.389291000000000054e+01 1.028575999999999979e+01 1.789142000000000010e+01 1.605643999999999849e+01 8.752219999999999445e+00 1.845148999999999972e+01 1.389291000000000054e+01 6.065199999999999481e-01 2.555820000000000203e+00 2.985510000000000108e+00 1.759470000000000089e+00 3.138389999999999791e+00 1.012799999999999923e+00 7.066300000000000026e+00 3.138389999999999791e+00 1.012799999999999923e+00 3.259930000000000216e+00 2.555820000000000203e+00 2.985510000000000108e+00 4.412869999999999848e+00 3.138389999999999791e+00 1.012790000000000079e+00 5.913339999999999819e+00 2.555810000000000137e+00 2.985510000000000108e+00 9.018729999999999691e+00 4.909309999999999619e+00 4.958389999999999631e+00 2.107099999999999973e+00 1.973270000000000080e+00 4.958450000000000024e+00 3.711889999999999912e+00 4.909309999999999619e+00 4.958380000000000010e+00 4.760510000000000019e+00 1.973260000000000014e+00 4.958440000000000403e+00 6.365319999999999645e+00 4.909309999999999619e+00 4.958380000000000010e+00 7.413909999999999556e+00 1.973260000000000014e+00 4.958440000000000403e+00 1.451910000000000034e+00 3.757490000000000219e+00 8.980079999999999174e+00 2.604859999999999953e+00 4.340049999999999741e+00 7.007369999999999877e+00 7.911669999999999980e+00 4.340049999999999741e+00 7.007380000000000386e+00 4.105310000000000237e+00 3.757499999999999840e+00 8.980090000000000572e+00 5.258280000000000065e+00 4.340060000000000251e+00 7.007369999999999877e+00 6.758720000000000283e+00 3.757490000000000219e+00 8.980090000000000572e+00 9.864119999999999777e+00 6.110990000000000144e+00 1.095297000000000054e+01 2.952490000000000059e+00 3.174939999999999873e+00 1.095302000000000042e+01 4.557280000000000442e+00 6.110990000000000144e+00 1.095295999999999914e+01 5.605889999999999596e+00 3.174939999999999873e+00 1.095301000000000080e+01 7.210700000000000109e+00 6.110979999999999634e+00 1.095297000000000054e+01 8.259309999999999263e+00 3.174939999999999873e+00 1.095303000000000004e+01 3.450239999999999974e+00 5.541730000000000267e+00 1.300195000000000078e+01 8.757080000000000197e+00 5.541739999999999888e+00 1.300195000000000078e+01 6.103659999999999641e+00 5.541730000000000267e+00 1.300195000000000078e+01 2.297299999999999898e+00 4.959179999999999922e+00 1.497466000000000008e+01 1.070950000000000024e+01 7.312660000000000160e+00 1.694754000000000005e+01 3.797860000000000014e+00 4.376610000000000333e+00 1.694759000000000171e+01 4.950709999999999944e+00 4.959170000000000300e+00 1.497465000000000046e+01 5.402680000000000149e+00 7.312660000000000160e+00 1.694753000000000043e+01 6.451279999999999681e+00 4.376629999999999576e+00 1.694760000000000133e+01 7.604129999999999612e+00 4.959179999999999922e+00 1.497466999999999970e+01 8.056089999999999307e+00 7.312669999999999781e+00 1.694754000000000005e+01 9.104699999999999349e+00 4.376619999999999955e+00 1.694760000000000133e+01 2.211349999999999927e+00 5.491889999999999716e+00 2.985580000000000123e+00 4.864770000000000039e+00 5.491900000000000226e+00 2.985580000000000123e+00 7.518180000000000085e+00 5.491900000000000226e+00 2.985590000000000188e+00 1.162719999999999976e+00 8.427939999999999543e+00 2.985500000000000043e+00 7.108799999999999564e-01 6.074419999999999931e+00 1.012780000000000014e+00 3.816139999999999866e+00 8.427949999999999164e+00 2.985500000000000043e+00 3.364290000000000003e+00 6.074410000000000309e+00 1.012790000000000079e+00 6.469549999999999912e+00 8.427939999999999543e+00 2.985510000000000108e+00 6.017699999999999605e+00 6.074410000000000309e+00 1.012790000000000079e+00 2.315679999999999961e+00 9.010510000000000019e+00 1.012799999999999923e+00 4.969100000000000072e+00 9.010510000000000019e+00 1.012790000000000079e+00 7.622499999999999609e+00 9.010519999999999641e+00 1.012780000000000014e+00 2.663300000000000001e+00 7.845399999999999707e+00 4.958440000000000403e+00 5.316709999999999603e+00 7.845399999999999707e+00 4.958440000000000403e+00 7.970130000000000159e+00 7.845390000000000086e+00 4.958429999999999893e+00 3.056740000000000013e+00 6.693559999999999732e+00 8.980169999999999320e+00 5.710160000000000124e+00 6.693570000000000242e+00 8.980150000000000077e+00 8.363569999999999283e+00 6.693570000000000242e+00 8.980159999999999698e+00 2.008109999999999840e+00 9.629630000000000578e+00 8.980090000000000572e+00 1.556270000000000042e+00 7.276089999999999947e+00 7.007360000000000255e+00 4.661529999999999951e+00 9.629609999999999559e+00 8.980090000000000572e+00 4.209679999999999644e+00 7.276089999999999947e+00 7.007349999999999746e+00 7.314939999999999998e+00 9.629630000000000578e+00 8.980090000000000572e+00 6.863089999999999691e+00 7.276089999999999947e+00 7.007360000000000255e+00 3.161059999999999981e+00 1.021219999999999928e+01 7.007369999999999877e+00 5.814490000000000158e+00 1.021218000000000004e+01 7.007369999999999877e+00 8.467890000000000583e+00 1.021218999999999966e+01 7.007369999999999877e+00 3.508690000000000087e+00 9.047069999999999723e+00 1.095301000000000080e+01 6.162110000000000198e+00 9.047079999999999345e+00 1.095301000000000080e+01 8.815530000000000754e+00 9.047079999999999345e+00 1.095301000000000080e+01 2.401660000000000128e+00 8.477759999999999962e+00 1.300193999999999939e+01 5.055069999999999730e+00 8.477759999999999962e+00 1.300193999999999939e+01 7.708479999999999777e+00 8.477759999999999962e+00 1.300193999999999939e+01 4.006459999999999688e+00 1.141386999999999929e+01 1.300195000000000078e+01 6.659880000000000244e+00 1.141385999999999967e+01 1.300193999999999939e+01 9.313280000000000669e+00 1.141385999999999967e+01 1.300193999999999939e+01 3.902140000000000164e+00 7.895240000000000258e+00 1.497474000000000061e+01 6.555539999999999701e+00 7.895249999999999879e+00 1.497472999999999921e+01 9.208949999999999747e+00 7.895240000000000258e+00 1.497474000000000061e+01 2.853509999999999991e+00 1.083130000000000059e+01 1.497466000000000008e+01 4.354090000000000238e+00 1.024874999999999936e+01 1.694760000000000133e+01 5.506910000000000416e+00 1.083130000000000059e+01 1.497466999999999970e+01 7.007509999999999906e+00 1.024874999999999936e+01 1.694759000000000171e+01 8.160339999999999705e+00 1.083130000000000059e+01 1.497466000000000008e+01 9.660920000000000840e+00 1.024874999999999936e+01 1.694759000000000171e+01 6.573920000000000208e+00 1.194654000000000060e+01 1.012780000000000014e+00 2.767570000000000086e+00 1.136402999999999963e+01 2.985590000000000188e+00 3.920500000000000096e+00 1.194654000000000060e+01 1.012790000000000079e+00 5.420989999999999753e+00 1.136402000000000001e+01 2.985590000000000188e+00 1.267079999999999984e+00 1.194655000000000022e+01 1.012790000000000079e+00 8.074400000000000688e+00 1.136402999999999963e+01 2.985570000000000057e+00 9.574930000000000163e+00 1.078143999999999991e+01 4.958380000000000010e+00 4.268110000000000070e+00 1.078143000000000029e+01 4.958380000000000010e+00 6.921520000000000117e+00 1.078144999999999953e+01 4.958389999999999631e+00 3.219529999999999781e+00 1.371753999999999962e+01 4.958450000000000024e+00 5.872950000000000337e+00 1.371753000000000000e+01 4.958450000000000024e+00 8.526350000000000762e+00 1.371752000000000038e+01 4.958450000000000024e+00 7.419319999999999915e+00 1.314821000000000062e+01 7.007369999999999877e+00 3.612960000000000171e+00 1.256569999999999965e+01 8.980159999999999698e+00 4.765900000000000247e+00 1.314822000000000024e+01 7.007349999999999746e+00 6.266370000000000218e+00 1.256570999999999927e+01 8.980159999999999698e+00 2.112490000000000201e+00 1.314821000000000062e+01 7.007360000000000255e+00 8.919779999999999376e+00 1.256569999999999965e+01 8.980150000000000077e+00 1.042032999999999987e+01 1.198310999999999993e+01 1.095294999999999952e+01 5.113500000000000156e+00 1.198310999999999993e+01 1.095294999999999952e+01 7.766919999999999824e+00 1.198311999999999955e+01 1.095294999999999952e+01 4.064910000000000245e+00 1.491920000000000002e+01 1.095303000000000004e+01 6.718329999999999913e+00 1.491921999999999926e+01 1.095302000000000042e+01 9.371740000000000848e+00 1.491920000000000002e+01 1.095303000000000004e+01 8.264709999999999113e+00 1.434989000000000026e+01 1.300192000000000014e+01 5.611290000000000333e+00 1.434989999999999988e+01 1.300193999999999939e+01 2.957870000000000221e+00 1.434989999999999988e+01 1.300192999999999977e+01 1.126571999999999996e+01 1.318477999999999994e+01 1.694754000000000005e+01 4.458339999999999748e+00 1.376736999999999966e+01 1.497474000000000061e+01 5.958890000000000242e+00 1.318478999999999957e+01 1.694753000000000043e+01 7.111749999999999794e+00 1.376737999999999928e+01 1.497471999999999959e+01 8.612310000000000798e+00 1.318477999999999994e+01 1.694753000000000043e+01 9.765169999999999462e+00 1.376736999999999966e+01 1.497471999999999959e+01 4.910309999999999953e+00 1.612087999999999965e+01 1.694760000000000133e+01 7.563719999999999999e+00 1.612087999999999965e+01 1.694759000000000171e+01 1.021712999999999916e+01 1.612088999999999928e+01 1.694759000000000171e+01 1.718939999999999912e+00 1.430007999999999946e+01 2.985500000000000043e+00 2.871900000000000119e+00 1.488264999999999993e+01 1.012790000000000079e+00 3.323789999999999800e+00 1.723616000000000170e+01 2.985590000000000188e+00 4.372359999999999580e+00 1.430007999999999946e+01 2.985510000000000108e+00 5.525310000000000166e+00 1.488265999999999956e+01 1.012790000000000079e+00 5.977190000000000225e+00 1.723614999999999853e+01 2.985580000000000123e+00 7.025780000000000136e+00 1.430007999999999946e+01 2.985500000000000043e+00 8.178729999999999833e+00 1.488264999999999993e+01 1.012799999999999923e+00 8.630620000000000402e+00 1.723616000000000170e+01 2.985570000000000057e+00 1.823299999999999921e+00 1.781868000000000052e+01 1.012780000000000014e+00 7.130139999999999922e+00 1.781868000000000052e+01 1.012769999999999948e+00 4.476709999999999745e+00 1.781867000000000090e+01 1.012790000000000079e+00 1.013114999999999988e+01 1.665356999999999843e+01 4.958400000000000141e+00 4.824329999999999785e+00 1.665356999999999843e+01 4.958400000000000141e+00 7.477750000000000341e+00 1.665355999999999881e+01 4.958389999999999631e+00 2.564340000000000064e+00 1.550176000000000087e+01 8.980079999999999174e+00 3.717280000000000140e+00 1.608433000000000135e+01 7.007369999999999877e+00 4.169179999999999886e+00 1.843783000000000172e+01 8.980159999999999698e+00 5.217760000000000176e+00 1.550174999999999947e+01 8.980069999999999553e+00 6.370700000000000252e+00 1.608430999999999855e+01 7.007380000000000386e+00 6.822600000000000442e+00 1.843783000000000172e+01 8.980159999999999698e+00 7.871170000000000222e+00 1.550174999999999947e+01 8.980079999999999174e+00 9.024119999999999919e+00 1.608433000000000135e+01 7.007369999999999877e+00 9.476000000000000867e+00 1.843784000000000134e+01 8.980150000000000077e+00 2.668699999999999850e+00 1.902034000000000091e+01 7.007369999999999877e+00 7.975530000000000008e+00 1.902035000000000053e+01 7.007349999999999746e+00 5.322099999999999831e+00 1.902036000000000016e+01 7.007349999999999746e+00 1.097653999999999996e+01 1.785526000000000124e+01 1.095297000000000054e+01 5.669710000000000250e+00 1.785523999999999845e+01 1.095295999999999914e+01 8.323130000000000805e+00 1.785525000000000162e+01 1.095295999999999914e+01 4.562669999999999781e+00 1.728599000000000174e+01 1.300193999999999939e+01 7.216099999999999959e+00 1.728600000000000136e+01 1.300195000000000078e+01 9.869500000000000384e+00 1.728599000000000174e+01 1.300195000000000078e+01 3.514100000000000001e+00 2.022202000000000055e+01 1.300192000000000014e+01 8.820909999999999584e+00 2.022202000000000055e+01 1.300193999999999939e+01 6.167500000000000426e+00 2.022202000000000055e+01 1.300192999999999977e+01 3.409720000000000084e+00 1.670343000000000089e+01 1.497466000000000008e+01 1.182193999999999967e+01 1.905690999999999846e+01 1.694753000000000043e+01 5.014549999999999841e+00 1.963952000000000098e+01 1.497472999999999921e+01 6.063130000000000130e+00 1.670342000000000127e+01 1.497465000000000046e+01 6.515100000000000335e+00 1.905692000000000164e+01 1.694754000000000005e+01 7.667980000000000018e+00 1.963951000000000136e+01 1.497474000000000061e+01 8.716559999999999420e+00 1.670343000000000089e+01 1.497466000000000008e+01 9.168519999999999115e+00 1.905693000000000126e+01 1.694754000000000005e+01 1.032138999999999918e+01 1.963950000000000173e+01 1.497472999999999921e+01