-2.461685213209999802e+03
-2.461731097110000064e+03
-2.461766179060000013e+03
-2.461791818619999958e+03
-2.461810547630000201e+03
-2.461825953779999963e+03
-2.461842772720000085e+03
-2.461866652520000116e+03
-2.461903964040000119e+03
-2.461961756820000119e+03
