4.002000000000000002e-01 -5.645660000000000123e-01 1.202425000000000077e+00 -4.018689999999999762e-01 5.649729999999999475e-01 -1.200260000000000105e+00 -4.007399999999999851e-01 5.636219999999999564e-01 -1.201723000000000097e+00 4.007830000000000004e-01 -5.642099999999999893e-01 1.201951999999999909e+00 -4.010210000000000163e-01 5.643550000000000511e-01 -1.200186999999999893e+00 -4.010020000000000251e-01 5.634930000000000216e-01 -1.201878999999999920e+00 4.007109999999999839e-01 -5.644970000000000265e-01 1.201807000000000070e+00 -4.009039999999999826e-01 5.639319999999999888e-01 -1.200439000000000034e+00 -4.001430000000000264e-01 5.634069999999999911e-01 -1.201824999999999921e+00 -4.014030000000000098e-01 5.649549999999999850e-01 -1.200056999999999929e+00 -4.006810000000000094e-01 5.639429999999999721e-01 -1.199616000000000016e+00 -4.010250000000000203e-01 5.658459999999999601e-01 -1.200091999999999937e+00 -4.007439999999999891e-01 5.638410000000000366e-01 -1.200800000000000090e+00 -4.008999999999999786e-01 5.650030000000000330e-01 -1.198912999999999895e+00 -4.003519999999999857e-01 5.650319999999999787e-01 -1.200720999999999927e+00 3.992479999999999918e-01 -5.648830000000000240e-01 1.201364000000000098e+00 4.003920000000000257e-01 -5.649359999999999937e-01 1.201799999999999979e+00 4.006660000000000221e-01 -5.656820000000000181e-01 1.201292999999999944e+00 4.002200000000000202e-01 -5.648180000000000422e-01 1.201354999999999951e+00 -4.013880000000000225e-01 5.646160000000000068e-01 -1.200098000000000109e+00 -4.010839999999999961e-01 5.639539999999999553e-01 -1.201265999999999945e+00 4.004659999999999886e-01 -5.644029999999999880e-01 1.201856999999999953e+00 -4.005469999999999864e-01 5.650300000000000322e-01 -1.200728999999999935e+00 -4.007680000000000131e-01 5.633590000000000542e-01 -1.201168999999999931e+00 4.006399999999999961e-01 -5.639910000000000201e-01 1.200876000000000055e+00 -4.014199999999999990e-01 5.651469999999999549e-01 -1.200218999999999925e+00 -4.002910000000000079e-01 5.638699999999999823e-01 -1.201638999999999902e+00 4.001250000000000084e-01 -5.630549999999999722e-01 1.202450000000000019e+00 3.997589999999999755e-01 -5.644709999999999450e-01 1.202139000000000069e+00 -4.008709999999999773e-01 5.636029999999999651e-01 -1.201116999999999990e+00 4.003349999999999964e-01 -5.632930000000000437e-01 1.202711000000000086e+00 4.004980000000000206e-01 -5.643679999999999808e-01 1.201675999999999966e+00 -4.008849999999999913e-01 5.639330000000000176e-01 -1.201175000000000104e+00 3.997080000000000077e-01 -5.633740000000000414e-01 1.203133999999999926e+00 4.001870000000000149e-01 -5.644449999999999745e-01 1.201891000000000043e+00 -4.001890000000000169e-01 5.632040000000000379e-01 -1.201411000000000007e+00 -4.004150000000000209e-01 5.630830000000000002e-01 -1.199832000000000010e+00 -4.005690000000000084e-01 5.634249999999999536e-01 -1.201106999999999925e+00 -4.006700000000000261e-01 5.642310000000000381e-01 -1.200919000000000070e+00 4.002640000000000087e-01 -5.644090000000000495e-01 1.202447000000000044e+00 3.994969999999999910e-01 -5.644510000000000360e-01 1.201554999999999929e+00 4.007200000000000206e-01 -5.648640000000000327e-01 1.202004999999999990e+00 4.006129999999999969e-01 -5.647360000000000158e-01 1.201821000000000028e+00 3.989260000000000028e-01 -5.637910000000000421e-01 1.202158000000000060e+00 4.006589999999999874e-01 -5.649790000000000090e-01 1.201453000000000104e+00 4.003039999999999932e-01 -5.640560000000000018e-01 1.202069999999999972e+00 4.000299999999999967e-01 -5.647029999999999550e-01 1.201376999999999917e+00 -4.010730000000000128e-01 5.641490000000000116e-01 -1.201430999999999916e+00 4.002640000000000087e-01 -5.632089999999999597e-01 1.200965000000000060e+00 4.004980000000000206e-01 -5.647180000000000533e-01 1.201680999999999999e+00 -4.006850000000000134e-01 5.633799999999999919e-01 -1.201284999999999936e+00 3.994869999999999810e-01 -5.638959999999999528e-01 1.201475000000000071e+00 4.006040000000000156e-01 -5.637299999999999534e-01 1.200561999999999907e+00 -4.003019999999999912e-01 5.637240000000000029e-01 -1.201761000000000079e+00 -4.015960000000000085e-01 5.645909999999999540e-01 -1.200569999999999915e+00 -4.007290000000000019e-01 5.641779999999999573e-01 -1.200749999999999984e+00 -4.015210000000000168e-01 5.644700000000000273e-01 -1.200301999999999980e+00 4.004449999999999954e-01 -5.625959999999999850e-01 1.202553999999999901e+00 -4.005279999999999951e-01 5.630249999999999977e-01 -1.201629999999999976e+00 4.002709999999999879e-01 -5.626480000000000370e-01 1.202823999999999893e+00 -4.008519999999999861e-01 5.638199999999999878e-01 -1.201527000000000012e+00 4.000210000000000155e-01 -5.631709999999999772e-01 1.202965999999999980e+00 -4.003929999999999989e-01 5.632660000000000444e-01 -1.201432999999999973e+00 -4.015230000000000188e-01 5.659920000000000506e-01 -1.199414999999999898e+00 -4.004969999999999919e-01 5.660830000000000028e-01 -1.199935999999999892e+00 -4.012089999999999823e-01 5.656889999999999974e-01 -1.198426999999999909e+00 -4.005020000000000246e-01 5.635019999999999474e-01 -1.200290999999999997e+00 -4.006819999999999826e-01 5.630469999999999642e-01 -1.201402000000000081e+00 -4.000409999999999799e-01 5.637450000000000516e-01 -1.201670999999999934e+00 4.001430000000000264e-01 -5.640920000000000378e-01 1.202175999999999911e+00 4.005420000000000091e-01 -5.645179999999999643e-01 1.201389999999999958e+00 3.987629999999999786e-01 -5.635839999999999739e-01 1.201732000000000022e+00 -4.009940000000000171e-01 5.640690000000000426e-01 -1.200239000000000056e+00 -4.012419999999999876e-01 5.652190000000000270e-01 -1.200253999999999932e+00 -4.012669999999999848e-01 5.646449999999999525e-01 -1.200269999999999948e+00 4.005119999999999791e-01 -5.641819999999999613e-01 1.202380999999999922e+00 -4.015090000000000048e-01 5.638649999999999496e-01 -1.201006999999999936e+00 4.003030000000000199e-01 -5.632970000000000477e-01 1.201532000000000044e+00 -4.002350000000000074e-01 5.631709999999999772e-01 -1.201265000000000027e+00 3.998050000000000215e-01 -5.638630000000000031e-01 1.202236000000000082e+00 -4.001170000000000004e-01 5.639899999999999913e-01 -1.201457999999999915e+00 4.001720000000000277e-01 -5.628549999999999942e-01 1.202515999999999918e+00 4.001600000000000157e-01 -5.629459999999999464e-01 1.202593000000000023e+00 3.997629999999999795e-01 -5.634529999999999816e-01 1.202925000000000022e+00 3.999570000000000070e-01 -5.653569999999999984e-01 1.202474000000000043e+00 -4.014820000000000055e-01 5.648600000000000287e-01 -1.200248999999999899e+00 4.003229999999999844e-01 -5.648300000000000542e-01 1.202004000000000072e+00 -4.004619999999999846e-01 5.638919999999999488e-01 -1.200533000000000072e+00 4.004139999999999922e-01 -5.651800000000000157e-01 1.201840999999999937e+00 -4.010880000000000001e-01 5.646349999999999980e-01 -1.200766999999999918e+00 -4.010130000000000083e-01 5.650100000000000122e-01 -1.199429000000000078e+00 -4.006190000000000029e-01 5.653059999999999752e-01 -1.200034999999999963e+00 -4.011589999999999878e-01 5.646060000000000523e-01 -1.198703999999999992e+00 3.999309999999999810e-01 -5.638290000000000246e-01 1.202504999999999935e+00 4.006759999999999766e-01 -5.650049999999999795e-01 1.201815000000000078e+00 3.994280000000000053e-01 -5.633719999999999839e-01 1.202067999999999914e+00 3.991709999999999980e-01 -5.642779999999999463e-01 1.201400000000000023e+00 4.004670000000000174e-01 -5.646820000000000173e-01 1.201597999999999944e+00 4.006390000000000229e-01 -5.649859999999999882e-01 1.201831000000000094e+00 4.002820000000000267e-01 -5.634980000000000544e-01 1.201924999999999910e+00 4.005889999999999729e-01 -5.637520000000000309e-01 1.200774000000000008e+00 3.993530000000000135e-01 -5.631549999999999612e-01 1.201923000000000075e+00 3.998729999999999785e-01 -5.645499999999999963e-01 1.201286999999999994e+00 -4.014639999999999875e-01 5.648600000000000287e-01 -1.200293999999999972e+00 4.006190000000000029e-01 -5.648760000000000447e-01 1.201456000000000079e+00 -4.009050000000000114e-01 5.658640000000000336e-01 -1.200261999999999940e+00 4.005389999999999784e-01 -5.643639999999999768e-01 1.200417999999999985e+00 -4.016000000000000125e-01 5.658300000000000551e-01 -1.200228000000000073e+00 1.200000000000000030e-04 -1.190000000000000085e-03 2.723999999999999859e-03 2.852308999999999983e+00 1.170059999999999989e-01 -3.960080000000000044e+00 2.852215999999999863e+00 1.170920000000000016e-01 -3.958950999999999887e+00 6.530000000000000431e-04 -1.825999999999999932e-03 2.354999999999999889e-03 2.851884000000000086e+00 1.168420000000000014e-01 -3.958771000000000040e+00 -1.789999999999999870e-04 -1.085999999999999943e-03 2.209000000000000026e-03 -2.851407000000000025e+00 -1.172289999999999999e-01 3.957167000000000101e+00 -2.852033000000000040e+00 -1.177639999999999937e-01 3.956033999999999828e+00 -2.851675000000000182e+00 -1.167939999999999950e-01 3.957818000000000058e+00 -2.851408999999999860e+00 -1.181839999999999974e-01 3.955569000000000113e+00 -2.852136999999999922e+00 -1.168450000000000044e-01 3.958098000000000116e+00 -2.851379000000000108e+00 -1.179700000000000054e-01 3.955824999999999925e+00 4.099999999999999912e-04 -3.130000000000000187e-04 1.864999999999999904e-03 2.852202999999999822e+00 1.178769999999999957e-01 -3.959130000000000038e+00 2.852390000000000203e+00 1.174990000000000062e-01 -3.959239000000000175e+00 3.480000000000000020e-04 -6.049999999999999606e-04 1.886000000000000090e-03 2.851583999999999897e+00 1.175900000000000001e-01 -3.959140999999999799e+00 7.039999999999999817e-04 -8.050000000000000515e-04 1.873000000000000099e-03 -2.851491000000000220e+00 -1.173570000000000030e-01 3.957510000000000083e+00 -2.852101000000000219e+00 -1.165589999999999959e-01 3.956376999999999811e+00 -2.851382000000000083e+00 -1.171370000000000050e-01 3.957301000000000180e+00 -2.851599000000000217e+00 -1.173550000000000010e-01 3.956529000000000185e+00 -2.851602000000000192e+00 -1.170120000000000049e-01 3.957139000000000184e+00 -2.851550000000000029e+00 -1.168519999999999975e-01 3.955655000000000143e+00 2.852444000000000202e+00 1.172379999999999950e-01 -3.959910999999999959e+00 2.852271000000000001e+00 1.175729999999999970e-01 -3.960013000000000005e+00 2.851116999999999901e+00 1.173669999999999991e-01 -3.959814999999999863e+00 4.279999999999999950e-04 -1.557000000000000007e-03 2.497000000000000088e-03 -2.851865000000000094e+00 -1.170510000000000023e-01 3.957870999999999917e+00 -2.852380000000000138e+00 -1.179140000000000049e-01 3.957295999999999925e+00 -1.820000000000000057e-04 -1.605000000000000090e-03 3.128000000000000138e-03 -2.852247000000000199e+00 -1.174580000000000068e-01 3.957704999999999806e+00 -2.851243999999999890e+00 -1.183990000000000042e-01 3.956720999999999933e+00 3.420000000000000188e-04 -1.709000000000000016e-03 3.484999999999999817e-03 -2.851964000000000166e+00 -1.172649999999999942e-01 3.957618000000000080e+00 -2.851916999999999813e+00 -1.184650000000000009e-01 3.957130999999999954e+00 8.100000000000000375e-05 -4.169999999999999987e-04 -1.196999999999999930e-03 7.060000000000000303e-04 -2.660000000000000146e-04 -8.540000000000000499e-04 1.631000000000000071e-03 -6.629999999999999609e-04 -1.680000000000000070e-03 6.049999999999999606e-04 -6.290000000000000018e-04 2.510000000000000078e-03 2.850404000000000160e+00 1.183739999999999931e-01 -3.957819999999999894e+00 8.530000000000000256e-04 -1.345999999999999974e-03 2.364999999999999915e-03 2.851596999999999937e+00 1.181019999999999986e-01 -3.957942000000000071e+00 -3.310000000000000225e-04 -9.430000000000000448e-04 2.119999999999999923e-03 2.851999000000000173e+00 1.185400000000000065e-01 -3.958600000000000119e+00 2.852215999999999863e+00 1.173629999999999951e-01 -3.959592999999999918e+00 2.851507999999999932e+00 1.170360000000000011e-01 -3.958753000000000188e+00 2.852697000000000038e+00 1.166250000000000064e-01 -3.959118000000000137e+00 -2.851323999999999970e+00 -1.168369999999999964e-01 3.956255000000000077e+00 -2.851210000000000022e+00 -1.172829999999999984e-01 3.955899000000000054e+00 -2.851344999999999796e+00 -1.166399999999999937e-01 3.956952999999999943e+00 7.039999999999999817e-04 -5.349999999999999938e-04 -1.224000000000000045e-03 6.040000000000000447e-04 -5.339999999999999695e-04 -8.859999999999999603e-04 9.790000000000000525e-04 -6.729999999999999871e-04 -9.139999999999999904e-04 6.650000000000000095e-04 -9.240000000000000166e-04 9.269999999999999811e-04 2.851043999999999912e+00 1.184370000000000006e-01 -3.957790000000000141e+00 3.350000000000000113e-04 -6.419999999999999925e-04 1.250999999999999942e-03 2.850945999999999980e+00 1.183150000000000035e-01 -3.957529000000000075e+00 6.350000000000000392e-04 -1.262000000000000101e-03 1.072999999999999952e-03 2.851605999999999863e+00 1.187799999999999967e-01 -3.957980000000000054e+00 2.852425999999999906e+00 1.169349999999999973e-01 -3.960939000000000210e+00 2.851161999999999974e+00 1.170579999999999954e-01 -3.960278000000000187e+00 2.851640000000000175e+00 1.165520000000000028e-01 -3.960491000000000206e+00 -2.851503999999999817e+00 -1.171760000000000024e-01 3.955760000000000165e+00 -2.851293000000000077e+00 -1.179400000000000032e-01 3.955532999999999966e+00 -2.851212999999999997e+00 -1.177310000000000023e-01 3.955420000000000158e+00 2.850779999999999870e+00 1.178710000000000035e-01 -3.958307000000000020e+00 2.851186999999999916e+00 1.181839999999999974e-01 -3.958305000000000184e+00 2.852109000000000005e+00 1.177060000000000051e-01 -3.958045999999999953e+00 2.852088000000000179e+00 1.176119999999999943e-01 -3.959687999999999874e+00 2.851189999999999891e+00 1.176470000000000016e-01 -3.959465999999999930e+00 2.852176000000000045e+00 1.182789999999999953e-01 -3.959534000000000109e+00 1.620000000000000075e-04 -7.100000000000000191e-04 1.170000000000000033e-03 1.044000000000000006e-03 -8.400000000000000348e-04 1.279999999999999942e-04 8.509999999999999769e-04 -1.070999999999999903e-03 1.659999999999999963e-04 6.740000000000000114e-04 -7.810000000000000102e-04 2.465000000000000177e-03 -2.851550000000000029e+00 -1.178150000000000031e-01 3.957181999999999977e+00 2.959999999999999849e-04 -1.087000000000000076e-03 2.847000000000000138e-03 -2.851208000000000187e+00 -1.174010000000000054e-01 3.957231000000000165e+00 -2.849999999999999886e-04 -6.250000000000000130e-04 3.834999999999999867e-03 -2.851319000000000159e+00 -1.180279999999999940e-01 3.957205000000000084e+00 2.852222999999999953e+00 1.188769999999999966e-01 -3.959131999999999874e+00 -4.000000000000000327e-05 -9.039999999999999642e-04 -6.130000000000000466e-04 2.852049000000000056e+00 1.186920000000000058e-01 -3.958347999999999978e+00 5.959999999999999586e-04 -3.730000000000000134e-04 -5.590000000000000351e-04 2.851780000000000204e+00 1.187030000000000030e-01 -3.958679000000000059e+00 1.103999999999999947e-03 -1.062000000000000010e-03 -2.190000000000000106e-04 -2.851398999999999795e+00 -1.183889999999999942e-01 3.958083999999999936e+00 -2.851793999999999940e+00 -1.176149999999999973e-01 3.958914000000000044e+00 -2.851249000000000144e+00 -1.178669999999999995e-01 3.958650000000000002e+00 -2.851968999999999976e+00 -1.166289999999999966e-01 3.955417999999999878e+00 -2.851844999999999963e+00 -1.168099999999999972e-01 3.955144999999999911e+00 -2.851777999999999924e+00 -1.163399999999999990e-01 3.955436999999999870e+00 2.852161000000000168e+00 1.175800000000000040e-01 -3.958458999999999950e+00 6.120000000000000223e-04 -1.097000000000000102e-03 -3.280000000000000038e-04 2.851774999999999949e+00 1.170709999999999945e-01 -3.958257000000000136e+00 8.850000000000000444e-04 -8.180000000000000422e-04 -7.320000000000000118e-04 2.851313000000000208e+00 1.175439999999999957e-01 -3.958092000000000166e+00 8.679999999999999565e-04 -9.890000000000000787e-04 -4.479999999999999933e-04 -2.851843999999999824e+00 -1.170230000000000020e-01 3.957980000000000054e+00 -2.851957000000000075e+00 -1.168130000000000002e-01 3.957720000000000127e+00 -2.852151000000000103e+00 -1.165709999999999941e-01 3.957714000000000176e+00 -2.851688999999999918e+00 -1.164049999999999946e-01 3.956207000000000029e+00 -2.851307999999999954e+00 -1.172279999999999989e-01 3.956262999999999863e+00 -2.851350000000000051e+00 -1.163880000000000053e-01 3.955762000000000000e+00 2.851477000000000039e+00 1.189150000000000068e-01 -3.957714000000000176e+00 2.851417000000000090e+00 1.187850000000000017e-01 -3.958244999999999791e+00 2.851477000000000039e+00 1.188909999999999967e-01 -3.958365000000000133e+00 -2.851910999999999863e+00 -1.169410000000000033e-01 3.958874999999999922e+00 7.489999999999999913e-04 5.299999999999999807e-04 -8.000000000000000383e-04 -2.852193000000000200e+00 -1.174820000000000031e-01 3.958686000000000149e+00 9.399999999999999719e-04 4.670000000000000214e-04 -1.281000000000000021e-03 -2.851964000000000166e+00 -1.170699999999999935e-01 3.957980000000000054e+00 6.489999999999999459e-04 3.559999999999999797e-04 -7.730000000000000326e-04 -2.852008000000000099e+00 -1.159379999999999994e-01 3.956916999999999796e+00 -2.851431999999999967e+00 -1.157519999999999938e-01 3.957387999999999906e+00 -2.851996999999999893e+00 -1.162139999999999979e-01 3.957323000000000146e+00 7.489999999999999913e-04 -2.829999999999999942e-04 1.871000000000000050e-03 2.852081999999999784e+00 1.177730000000000027e-01 -3.961338000000000026e+00 -4.499999999999999877e-04 -1.154000000000000078e-03 -8.019999999999999785e-04 9.740000000000000394e-04 -6.149999999999999868e-04 1.371000000000000040e-03 2.851318000000000019e+00 1.177799999999999958e-01 -3.960824999999999818e+00 1.232999999999999938e-03 -9.740000000000000394e-04 -9.650000000000000374e-04 -2.809999999999999998e-04 -5.929999999999999941e-04 1.686999999999999915e-03 2.852100000000000080e+00 1.177180000000000032e-01 -3.961122000000000032e+00 1.074000000000000085e-03 -1.639999999999999965e-03 -7.269999999999999987e-04 2.851525999999999783e+00 1.167699999999999988e-01 -3.958912000000000209e+00 2.851646999999999821e+00 1.166549999999999948e-01 -3.959042000000000172e+00 2.852103000000000055e+00 1.166770000000000029e-01 -3.958928999999999920e+00 -2.851576999999999806e+00 -1.171600000000000003e-01 3.957225000000000215e+00 -2.851726999999999901e+00 -1.169469999999999954e-01 3.957778999999999936e+00 -2.851939999999999920e+00 -1.166370000000000046e-01 3.957825999999999844e+00 3.869999999999999742e-04 -4.310000000000000137e-04 2.781000000000000052e-03 2.852450000000000152e+00 1.178720000000000045e-01 -3.960408000000000150e+00 8.670000000000000406e-04 -5.479999999999999845e-04 -1.029999999999999964e-04 -2.149999999999999947e-04 -2.709999999999999735e-04 3.704999999999999960e-03 2.852073999999999998e+00 1.180289999999999950e-01 -3.960682999999999954e+00 5.919999999999999698e-04 -1.230000000000000082e-04 -2.900000000000000017e-04 6.399999999999999710e-05 -2.779999999999999811e-04 3.049000000000000061e-03 2.851643999999999846e+00 1.172330000000000039e-01 -3.960172000000000025e+00 7.609999999999999577e-04 -6.419999999999999925e-04 4.279999999999999950e-04 2.851551999999999865e+00 1.177499999999999936e-01 -3.958277999999999963e+00 2.851907000000000192e+00 1.178270000000000012e-01 -3.957777000000000100e+00 2.851958999999999911e+00 1.172109999999999957e-01 -3.957596999999999809e+00 -2.851608000000000143e+00 -1.174980000000000052e-01 3.958778000000000130e+00 -2.851339999999999986e+00 -1.166910000000000031e-01 3.958461999999999925e+00 -2.851833000000000062e+00 -1.169440000000000063e-01 3.958677999999999919e+00 2.852041999999999966e+00 1.170780000000000015e-01 -3.959490999999999872e+00 2.851246999999999865e+00 1.172949999999999965e-01 -3.959715000000000096e+00 2.852488999999999830e+00 1.176819999999999949e-01 -3.960068000000000144e+00 2.851255000000000095e+00 1.176210000000000033e-01 -3.958162000000000180e+00 2.852390999999999899e+00 1.172470000000000040e-01 -3.957997000000000209e+00 2.851824999999999832e+00 1.177959999999999979e-01 -3.958283000000000218e+00 7.069999999999999462e-04 -9.000000000000000567e-05 1.286000000000000034e-03 -2.851392000000000149e+00 -1.170889999999999986e-01 3.959923999999999999e+00 8.069999999999999916e-04 -1.234000000000000071e-03 4.820000000000000066e-04 3.409999999999999945e-04 -4.090000000000000211e-04 1.763999999999999943e-03 -2.851952999999999960e+00 -1.171370000000000050e-01 3.959121999999999808e+00 5.619999999999999996e-04 -8.850000000000000444e-04 -5.779999999999999548e-04 -3.800000000000000209e-05 -3.100000000000000135e-05 2.840000000000000076e-03 -2.851744000000000057e+00 -1.172119999999999967e-01 3.959652999999999867e+00 5.820000000000000520e-04 -1.240999999999999916e-03 -4.490000000000000176e-04