-4.702363337499999716e+02
-4.702363351700000180e+02
-4.702363379000000236e+02
-4.702363420699999779e+02
-4.702363477700000089e+02
-4.702363550000000032e+02
