-1.412881014979999918e+03
-1.412881016159999945e+03
-1.412881018249999897e+03
-1.412881021599999940e+03
-1.412881026119999888e+03
