-1.645090840448114877e-01 9.731583846976542751e-04 2.079287256600659099e-03 6.109855126888461517e-03 5.410458022128041954e-04 3.568241130913479917e-03 7.439945287509935022e-03 1.172013541258915036e-03 1.366286345523692750e-03 6.728491655350205816e-04 -4.889949344622184293e-03 3.610096731040305686e-03 2.288649612758296978e-04 2.432047500374513640e-03 3.362974841627913974e-03 2.168424307510899570e-04 -1.168945627813554843e-03 3.847025406654020797e-03 -3.621885448157415618e-04 -1.204934399330675251e-03 4.607002338974213948e-03 7.658517315428262171e-04 1.399051404237301515e-03 3.668011354071097629e-03 7.179144873824829486e-04 3.660293103866933727e-04 2.107024046551009017e-03 -9.171349667840949507e-04 2.360477740864940128e-04 3.318959309942010657e-03 -1.912242119260421219e-05 1.073042930955320825e-03 3.026984010749734361e-03 8.678651523307989073e-04 2.340463339051711874e-04 3.316032025019569757e-03 -2.812525093711997301e-05 1.640436753392826260e-04 3.078996531800726796e-03 9.598593757391180687e-04 -6.419519658177439032e-04 3.441048190942469671e-03 -8.301415061225415068e-04 -6.779502665172929075e-04 3.461975810998934189e-03 1.688978319558910254e-04 -2.069646169280974944e-04 2.505009814292232483e-03 -2.011013642904595309e-04 -2.209646107740157351e-04 2.484994946084599469e-03 -5.512755741448637691e-05 -4.409556654580388613e-04 3.124004009842812433e-03 2.787815306198871196e-05 3.904241221369810855e-05 2.993000584468768089e-03 -5.612559477775101935e-05 -1.495623182980292392e-05 3.083997929431907953e-03 -3.712142635495087551e-05 5.604232132878081348e-05 2.982997696600762569e-03 -2.512209116913051427e-05 1.430425671243728983e-04 3.000996951768821874e-03 -4.112676548311569548e-05 5.004418175256288736e-05 3.113997618662161290e-03 -2.712491192542395107e-05 2.504351861455028511e-05 3.067998543240925066e-03 7.874074750968997874e-06 8.304385982651720692e-05 3.093999146136263735e-03 1.428732617643654044e-04 3.304402350518863079e-05 3.113005352321675159e-03 -4.512610848632483067e-05 5.043943866562853170e-06 3.096998093793915888e-03 -8.589334037002341142e-05 -1.410371068275585434e-04 -2.622001500491140391e-03 2.921250111695031606e-04 -2.043754466440995019e-06 -3.069988078302079721e-03 -6.285804704950547297e-05 1.039506538792279772e-04 -3.484004036662300113e-03 -2.428731708368635396e-04 -2.104397356237349499e-05 -3.115009594538089514e-03 -4.787495813902272140e-05 -2.750435732869986453e-04 -3.075998052856455684e-03 -1.028718638683064768e-04 1.919555198184216523e-04 -3.143006913456522933e-03 1.411279893261338796e-04 -1.510447137314481557e-04 -3.145992114593192373e-03 1.681186251776096649e-04 5.895858271060023137e-05 -2.911993992678066356e-03 3.021237824838474725e-04 -1.104333696163435349e-05 -3.039987543521585883e-03 -1.096135836715115587e-02 -2.044222038613046494e-02 -1.615015654511613163e-02 1.330981814206818985e-02 -1.757830007148304674e-02 -2.042920881047456672e-02 2.425299302263183351e-03 2.917894688100774580e-03 -7.293942615869348882e-03 -9.208691684032145998e-04 -1.098045129740054171e-03 -3.234021933713270014e-03 3.846794930299704952e-04 -3.971755137252010875e-02 3.166457880122311441e-02 -1.241821069572911608e-03 -6.730615089950939831e-04 -4.407041029565533612e-03 -4.489662423560666498e-05 -4.072037067645133991e-03 -2.616944098152702933e-03 9.171320662856687674e-04 -1.703047164293402952e-03 -3.275938511202977025e-03 1.261277732563142789e-04 -1.674045042100058556e-03 -3.169971132649888196e-03 1.612793548814484790e-05 3.995545501279317648e-05 -3.140999912657052584e-03 3.712946562403115624e-05 1.795489981586794926e-05 -3.178998745573057873e-03 -2.873430223874564414e-06 1.195593775978984258e-05 -3.108000289406523137e-03 3.512635046893843201e-05 -8.044021103071036821e-06 -3.102998458463559258e-03 5.812155949506365651e-05 9.957633866055629727e-06 -2.984997777193418647e-03 1.242658993919845472e-07 -1.804327062963394378e-05 -3.051999741963123437e-03 3.012607793939983003e-05 -4.404393211768885946e-05 -3.096998151673907487e-03 4.112892684691156709e-05 5.955080996432783065e-06 -3.165998412568576253e-03 -1.787282099096168089e-05 -4.204427733454980834e-05 -3.124000134605189015e-03 2.899766319161568897e-05 -7.199922874308976330e-05 5.600220165159450778e-05 5.600615744468498734e-05 6.299782947655965663e-05 -1.499986126919961331e-04 -1.730016396601430698e-04 -1.399929742843913443e-05 3.999315374426143008e-05 5.900805097374797666e-05 8.899717494636338747e-05 -1.959988591085314014e-04 5.100125135869345048e-05 3.799953472950431434e-05 -2.999846196371685605e-05 -4.000202038731745903e-05 -8.399928813750816325e-05 4.799956205346586114e-05 -6.998741591002598911e-06 -5.700044820273227601e-05 -3.199947688369303314e-05 9.300162013715789248e-05 -1.100063992934810309e-05 -3.999605696826408495e-05 3.999725127265124907e-05 -7.799909557748896708e-05 6.600273463824162001e-05 2.685587055018206701e-03 -1.514221062783239341e-02 -1.470767597114779925e-02 2.150021949325108331e-03 4.709908022792400734e-04 -5.299191274040051039e-04 1.041198373857303398e-02 -9.940027648935310153e-04 3.804380778454653496e-04 2.919647100379106283e-02 7.213163278409405639e-03 1.313008665027746644e-02 -5.431324465801198355e-03 8.231174478873349134e-04 7.983767169336337607e-03 2.024714962656182921e-02 -5.412069430666255516e-03 -3.778098791358604647e-03 -5.829967621563780615e-04 1.740999804132659350e-03 -4.604842369963585912e-05 -4.760234844441093996e-04 1.885009063504698235e-03 6.129538912208890369e-04 2.900485420601175480e-04 -1.520171695190209230e-04 -1.194986034822259104e-03 -6.010169993589796200e-06 6.500356331806034411e-05 2.509988338869387193e-04 -8.000143373239411199e-05 9.300058720874543859e-05 3.699542376551307794e-05 -2.002069659057761308e-06 1.130007529777548637e-04 5.299831642175726161e-05 1.630066703717413987e-04 2.499976180769609350e-04 -1.589969067943286247e-04 -1.779939628816644989e-04 2.209980977485041429e-04 -1.440103814633628490e-04 2.899148530259231278e-05 -2.129971162373662022e-04 2.050042005777332193e-04 -2.069962910725978633e-04 5.599888607297614915e-05 -9.000922308727145966e-05 1.000042127944756438e-05 -3.400016378228296266e-05 -1.099911073730536697e-05 2.010002136489272783e-04 6.499978590003845265e-05 -3.992736659832532598e-06 3.355776934965953862e-02 -1.473294999776069043e-02 5.381575386309694724e-03 1.816134713736846382e-03 -1.204700484698157650e-03 2.122609105425980053e-02 3.219351893638391221e-02 1.223949378258199286e-02 3.660713745212574449e-02 9.852129262932305537e-03 2.662955197992882992e-04 2.138839743137872090e-02 3.062206782787138537e-03 1.386274153619404580e-03 1.950610505945405901e-02 3.062069517805019511e-03 -1.309678790005997136e-03 2.282514327961903192e-02 4.591868541674693849e-04 -8.197174705446839179e-04 1.995303033880927931e-02 -5.808526645260188217e-04 2.480298003279046010e-03 2.098694120154347142e-02 1.381162084502592655e-03 1.505291065398845808e-03 2.060603491952691865e-02 -2.393931479294845750e-03 2.183262474679393661e-04 2.287889944298256151e-02 2.422079949838943334e-03 1.543184784266119077e-04 2.259709646224054500e-02 -1.684985074509676650e-05 4.592960306710547141e-04 2.087899282146386815e-02 -8.018778263944548136e-04 -1.656937846020855459e-04 2.155396971607042786e-02 -4.271453752056784205e-05 -4.012752280624609993e-03 1.747005516884896081e-02 8.911070576925839235e-04 -2.266898644241436178e-04 2.192403952097098790e-02 7.019805220317747120e-05 1.362279530394530256e-03 1.971998356273490724e-02 5.471494121281184455e-04 -6.887044675342270973e-04 2.087503206410007417e-02 -6.198541953872628791e-04 -6.687022919559420294e-04 2.096398425922881698e-02 5.313904001842513166e-05 1.299718845471332000e-06 2.114300216509369668e-02 8.314199461765507811e-05 3.029867455139696858e-05 2.107100297563102229e-02 -3.285984480107773077e-05 -3.070061079190345837e-05 2.111499911681495936e-02 6.214014574222873533e-05 9.299328997224630701e-06 2.111600241818435003e-02 1.011424996828679332e-04 -7.015238507484033597e-07 2.105800414812909402e-02 -3.486044780126553897e-05 -7.270041073254197720e-05 2.112899963082631033e-02 1.114068132411091423e-05 -1.907008720723303108e-04 2.109900317698943858e-02 -2.286333585656520959e-05 -6.869941350542830400e-05 2.120000006269946724e-02 -3.859514406931952252e-06 -1.287007752668660964e-04 2.110500168714975894e-02 -1.112137994527554515e-03 -7.129927244596021105e-05 -2.117004429600648913e-02 6.838937526833183209e-04 1.054688574410544760e-03 -2.192798712481491136e-02 6.848414082151675587e-04 -9.432937464602122145e-04 -2.068095875808186393e-02 1.298777917909299984e-04 3.286943674702514739e-04 -2.154999939146154050e-02 1.828570653981476731e-04 -1.382985850837841792e-04 -2.104999061270569280e-02 5.008710990612126384e-04 1.026963454487191709e-04 -2.138998107999996734e-02 -2.511054464693756867e-04 -1.094311558116922625e-03 -2.198899473074030983e-02 -2.011398888146888678e-04 -9.729933357425044765e-05 -2.112400683073203250e-02 -1.261752747622561235e-04 9.947132258288249752e-04 -2.023401925961324649e-02 -8.113042398789885225e-04 1.718758861675254721e-03 -1.705305742105406308e-02 -9.262781533029520839e-08 1.301667195792239884e-01 -1.977984549927248870e-02 -1.803032082678643919e-04 1.257575738087326480e-04 -1.710900914096774930e-02 9.379282650074845804e-04 -2.087324497591919268e-03 -2.283593223434183736e-02 6.224952548267759928e-03 -6.949338419481251167e-03 -2.352564801027458297e-02 -3.331983714623525019e-03 -7.987353408087996542e-03 -2.511102246145681394e-02 -7.465059001453243359e-03 -7.516323829668582202e-03 -2.325319744018826407e-02 7.053876247955000005e-03 -8.026312797021682016e-03 -2.167259898496030207e-02 -1.796193843254325273e-03 -1.449279667602907783e-03 -1.982505261336090299e-02 9.858076585416723886e-06 8.701238448233518025e-06 -2.107199974152371494e-02 -4.214618879825637909e-05 1.777028103488956928e-04 -2.096400425515039523e-02 -7.414503144950382449e-05 -8.297618265927983518e-06 -2.099600292112387828e-02 -3.214636270990188803e-05 5.970283088642063907e-05 -2.096200217496765536e-02 -8.214757183140037147e-05 -8.029674714918315782e-05 -2.093500222614842060e-02 -1.314615214424299561e-05 -8.729729739804994049e-05 -2.096999931713281612e-02 -4.715112235928260769e-05 1.370448726026243684e-05 -2.084600213371113481e-02 -1.181518905113410056e-04 2.070481223039572792e-05 -2.082700512415356850e-02 -6.414842299115842636e-05 8.070357900774411070e-05 -2.091100377581532957e-02
-1.644430832343672932e-01 9.681580494645047538e-04 2.059290015084242094e-03 6.135856421314468852e-03 5.300453281665614552e-04 3.536242345640754070e-03 7.431946529489699520e-03 1.146013108013849147e-03 1.335286388407551546e-03 6.808489000468612162e-04 -4.916949265816659802e-03 3.616097439601150595e-03 2.318661562820245993e-04 2.450047086867644490e-03 3.333974708617683594e-03 2.068416343397926147e-04 -1.197945350602558010e-03 3.866025410582987678e-03 -3.551900311197171201e-04 -1.178933880235840878e-03 4.644002255363926558e-03 7.988522436727407998e-04 1.429051208261859773e-03 3.656012272537435912e-03 6.769138468530770452e-04 3.800295693328502224e-04 2.123022178492551051e-03 -9.151349276320607483e-04 2.340477583429079504e-04 3.317959419740169804e-03 -5.612347676946275409e-05 1.077043328548454686e-03 3.052982447343019490e-03 9.018649299176169191e-04 2.620463923472514129e-04 3.322033012545552982e-03 -3.112483432334981680e-05 1.760435359091077484e-04 3.068996239514307743e-03 9.558584924211311826e-04 -6.259516507758742946e-04 3.463047801194398499e-03 -8.231405374225141342e-04 -6.369505980916925509e-04 3.438975514777971049e-03 1.508989157620307996e-04 -2.269649856326252577e-04 2.478009364897280995e-03 -2.081018889791142585e-04 -2.669644351548609439e-04 2.496995313204606465e-03 -2.812656292308450727e-05 -4.709560410407948082e-04 3.099005534661936415e-03 8.875288514623749149e-06 2.104341953811509602e-05 3.063000065907267675e-03 -4.112794797960432180e-05 -3.955421263723123052e-06 3.141998384235359688e-03 -3.312322199309642579e-05 5.104294202029622439e-05 3.026997930332082226e-03 -3.712509588203018803e-05 1.540436256760747274e-04 3.074996307094419751e-03 -2.312920012913722561e-05 6.104501832524494951e-05 3.173998195626307611e-03 -2.812713668289892335e-05 4.404429917437599457e-05 3.122998233091440340e-03 -1.812773339947032925e-05 6.204450400953028238e-05 3.137998385086265309e-03 1.448716313619591897e-04 3.104458905121246660e-05 3.153005462081720500e-03 -2.912716724143552449e-05 5.044299961303802233e-06 3.122998745303364257e-03 -8.889245545410246743e-05 -1.030374022161035320e-04 -2.643002161389183466e-03 2.641257253870642001e-04 2.595602643210747273e-05 -3.086989615447485128e-03 -3.485597812064163500e-05 1.459499230613333504e-04 -3.534003491898054378e-03 -2.198722460302218013e-04 -3.604431765906626975e-05 -3.138008445270681294e-03 -6.487452978501996061e-05 -3.000437159292926835e-04 -3.086998390656612180e-03 -1.108700275060033215e-04 1.969548880810955045e-04 -3.188007310070317159e-03 1.341300527740309592e-04 -1.680454313163247729e-04 -3.196992158569761985e-03 1.531200958167506902e-04 1.295806988175145627e-05 -2.948993951279318352e-03 3.251267824861827456e-04 -2.804440412568902317e-05 -3.113986365851240806e-03 -1.098735729746768558e-02 -2.053222076274176244e-02 -1.617815632783351984e-02 1.336181993763490769e-02 -1.762530075019489925e-02 -2.047420602659359365e-02 2.410299400930939352e-03 2.887894657315355149e-03 -7.296942801346422217e-03 -9.548679522348290510e-04 -1.105045528451340008e-03 -3.264023218949975783e-03 4.416790364341461163e-04 -3.972855126119402558e-02 3.167558127825680775e-02 -1.269822036663393553e-03 -6.600611468054233761e-04 -4.383042354082599366e-03 -8.089755686720108202e-05 -4.067036713368483644e-03 -2.593945635013541161e-03 9.461323168802255375e-04 -1.643047257895316774e-03 -3.280938180959454623e-03 1.341261436325051507e-04 -1.675044481252112478e-03 -3.129970792742499831e-03 3.127388889390185033e-06 1.795564950530077292e-05 -3.128000130129405219e-03 4.312896834966626529e-05 6.955065252544296877e-06 -3.166998345303708232e-03 5.125384163688982873e-06 5.956342652490996382e-06 -3.078999878600091784e-03 3.512509204076551207e-05 -3.043581591918835713e-06 -3.071998529381194526e-03 3.012088293547640641e-05 2.995789681045294409e-05 -2.967999200948322463e-03 2.512361512879028442e-05 -1.704306335991283904e-05 -3.035998738134482611e-03 2.112526509721117623e-05 -4.204364151501781483e-05 -3.076998546535686559e-03 4.812793465304923956e-05 -1.304458421553617146e-05 -3.141997858167423080e-03 -1.387345372195577628e-05 -1.804405362422810012e-05 -3.108000312002981696e-03 2.499413772046901288e-05 -4.999799214512638611e-05 1.430017267765187092e-04 6.700310415613421999e-05 6.399888419815338099e-05 -7.499817901011719755e-05 -1.650029896981052111e-04 3.000117834819826312e-05 7.399285565787145345e-05 4.100191938045217666e-05 1.109993298851761950e-04 -4.499990413501715362e-05 1.199616442033257533e-05 4.200133749037155263e-05 9.499989309583593594e-05 1.299340943176121579e-05 -9.599774172201400429e-05 1.600018902876216480e-04 1.399702966782539139e-05 -1.009990043282934336e-04 7.100200198002433493e-05 7.199942982354170802e-05 -5.199987205914130409e-05 1.300366913289591093e-05 3.099659739595521325e-05 -8.099886168549532230e-05 8.200241066899839225e-05 2.670588695667813067e-03 -1.502321115485567155e-02 -1.474567826907909399e-02 2.132027152988250854e-03 4.599890016164732889e-04 -6.579197043049384540e-04 1.033298670734201195e-02 -9.990037380153921152e-04 3.074349318549051270e-04 2.900348441829615070e-02 7.131158736685665016e-03 1.279907995403750144e-02 -5.384316008442633847e-03 8.071144621066930237e-04 7.775769310253912922e-03 2.007515415455346161e-02 -5.402070869727209658e-03 -3.889105937019445881e-03 -5.599899476908496180e-04 1.758997418430107611e-03 -2.130477421645596617e-04 -4.580194491780099930e-04 1.890007645808522299e-03 5.139545533994220507e-04 2.610485867228775833e-04 -1.470171609904318336e-04 -1.195987286614829228e-03 -4.700972597319301590e-05 8.003425293104647167e-06 2.389979724757157746e-04 -4.600072350910463771e-05 6.400030538948313515e-05 1.899721944632436747e-05 9.999796412487260431e-06 5.200007723156842060e-05 5.999669959233281661e-06 1.500067565256445114e-04 2.559975998997153480e-04 -1.609975212301147779e-04 -1.549935713388290017e-04 2.529979521362083405e-04 -1.530098985638517282e-04 2.099239762275099044e-05 -1.919974218870119909e-04 1.830035770983426608e-04 -2.189950991882559563e-04 6.999848431145311376e-05 -1.190099101992150420e-04 3.400276820534767962e-05 -1.000990711853189080e-06 -6.799860125008587376e-05 1.880031353987162823e-04 1.039987894515860556e-04 -7.499381889767077513e-05 3.338977074381025562e-02 -1.451295029157337671e-02 5.351565426126632212e-03 1.801143262016377186e-03 -1.156703436117285542e-03 2.101708976310867616e-02 3.191952782940078032e-02 1.220749089218898381e-02 3.638812674850455675e-02 9.855135617706598655e-03 2.172932915413675666e-04 2.123139824839763087e-02 3.009214192406869156e-03 1.280271586414540117e-03 1.932210440426292142e-02 3.008075903135991585e-03 -1.423681001982174833e-03 2.266614269710590795e-02 5.451904023192176299e-04 -7.607187571787025126e-04 1.986703300439437644e-02 -6.078481092545583338e-04 2.473296436507567333e-03 2.087494020142895146e-02 1.310164758816171520e-03 1.488290185258792650e-03 2.054003226942982194e-02 -2.423925539562298871e-03 1.073241726553003531e-04 2.273089979522635237e-02 2.445086879389849095e-03 1.113160360190280950e-04 2.242609800862291336e-02 -6.842978359292003933e-06 3.952936126223333536e-04 2.070899413620727256e-02 -8.598744723495722712e-04 -1.466949017694437060e-04 2.147196708495978379e-02 1.928957841710708264e-05 -3.904753732783000034e-03 1.737105616243530756e-02 8.791129747864953733e-04 -1.586918966375772577e-04 2.178003806836672010e-02 1.202921522590731249e-06 1.340277883088039504e-03 1.959998106501852771e-02 5.941544983012519900e-04 -6.417062623864096087e-04 2.075103331174046190e-02 -6.048467771546604246e-04 -6.597048840605478559e-04 2.078198474261089973e-02 2.148069900751732739e-06 -1.170338869098480190e-05 2.092100027284758690e-02 6.614846611102273512e-05 2.629643359327211327e-05 2.091200234023541174e-02 3.414747940954010523e-05 -3.770321525510561154e-05 2.093500194452365543e-02 6.415129854929212973e-05 3.295442715907664706e-06 2.084200258494734240e-02 7.615034474638366984e-05 3.329577358401816513e-05 2.086600264824233983e-02 -1.785223158358357251e-05 -3.270327378437710216e-05 2.092799975615708755e-02 -8.496866326172760996e-07 -2.147042228114580279e-04 2.086200302882586233e-02 6.145881892139700993e-06 -1.017026545685374982e-04 2.097300171168136121e-02 1.489680616486093356e-07 -1.127037273818992414e-04 2.089700162338230249e-02 -1.058150400299241343e-03 -1.294976329428282189e-06 -2.086404308980843031e-02 6.888765959097585458e-04 1.089694553521678788e-03 -2.150598741782466794e-02 6.358236571038569911e-04 -9.392875265750253583e-04 -2.024496081051992483e-02 1.948656052108454812e-04 2.626985415651731434e-04 -2.125199580915084971e-02 1.808431333625268626e-04 -1.972937488836251120e-04 -2.070898985797634331e-02 4.388581474848288525e-04 -4.299125811397552990e-06 -2.107398208796579936e-02 -2.161170800964908186e-04 -1.026307516501374180e-03 -2.170199426986522961e-02 -1.741563815358794596e-04 -4.629359853537057728e-05 -2.071800645471240723e-02 -2.001887337095871065e-04 1.019717976618285437e-03 -1.990302262770801342e-02 -8.563158077444854100e-04 1.610762895059261908e-03 -1.677105772255605906e-02 3.589807259063531296e-05 1.294717225993321785e-01 -1.956483417997610316e-02 -1.563143775515353994e-04 1.107614397342665969e-04 -1.683500795125558031e-02 8.269162180244738229e-04 -2.027320199880171432e-03 -2.253893760529821280e-02 6.240939363371596736e-03 -6.834333810059493169e-03 -2.319964898948681173e-02 -3.258997899565773890e-03 -7.849348488854455963e-03 -2.476002144569233038e-02 -7.480073350847955133e-03 -7.536318827337655166e-03 -2.290119776777298222e-02 7.023864691905608651e-03 -7.963308732866469439e-03 -2.138760110004987031e-02 -1.738208257696221117e-03 -1.448274694077227162e-03 -1.947105026605838035e-02 -1.114433846390233874e-05 -7.297908617307793415e-06 -2.101300036987222009e-02 -5.614802827660668119e-05 1.687034593125405306e-04 -2.091900469768426946e-02 -3.414580752936049107e-05 -1.129738020735988431e-05 -2.097700124977420338e-02 -3.014851464749339387e-05 6.770358074277609212e-05 -2.090900220699732845e-02 -7.114971594072161680e-05 -6.229600434080122501e-05 -2.088200203346807227e-02 -8.148633743928910866e-06 -3.229642229526283575e-05 -2.090799989336318554e-02 -6.815215681790870949e-05 -7.295141849817166902e-06 -2.082100269113921348e-02 -1.311537448784169592e-04 -7.294539587040178082e-06 -2.078200525658908601e-02 -2.015050605908051015e-05 7.270426762428326283e-05 -2.086000187072318407e-02