1.060033431140197484e-04 -4.198399996160822462e-02 3.040900004135172266e-02 2.141299936121772093e-02 9.814001638191629032e-03 1.874199987200036305e-02 -1.930600072910619580e-02 1.093799855764124654e-02 1.777900009564062009e-02 -2.218999870101730828e-03 -1.548000165503146024e-03 2.323000013794819865e-03 1.587000086240848706e-02 -1.240999881353027808e-02 -1.379800007520404909e-02 -1.566599909460385937e-02 -1.308400120005145592e-02 -1.524499990045664367e-02 -9.019982174155859612e-04 -2.232300005115561009e-02 1.708200002727683006e-02 6.970000054069023848e-04 -1.589999484833633291e-04 -1.199000003688517786e-03 1.780000080804169460e-03 -1.085999865618867419e-03 -2.410000087405629100e-04 -4.909996129792089424e-04 -5.292000039525752292e-03 -2.393999992003696588e-03 -1.050999939415300051e-03 -7.880000793085995816e-04 1.790000065884827575e-04 -2.399999475578303400e-04 -6.310000172972203471e-04 8.550000019550563083e-04 3.370001743951345696e-04 -2.176999972748580679e-03 1.766000000314362677e-03 -2.640000432542453121e-04 4.819999788029942674e-04 -1.231999999024216549e-03 3.949999695344339552e-04 4.480000304922552527e-04 6.189999973721604064e-04 -4.759998180195107518e-04 -2.374000035559490924e-03 4.410000049987839246e-04 3.839917704076176142e-04 1.101740000476617576e-01 1.864099988783015846e-02 9.781000862874313431e-03 -8.180999216080103026e-03 4.422999995418210040e-02 -1.255899925148738598e-02 -6.604000904772059852e-03 4.511900007592044293e-02 2.396000162630751874e-03 -7.139997991320034014e-04 1.967999998748762303e-02 -6.529995279969977133e-04 -4.576000026600165853e-03 2.281200000817532395e-02 6.780005035993924394e-04 -5.000999926035180725e-03 2.271300000125291846e-02 -1.291000116228296132e-03 2.949999921702582337e-03 1.936300000417944672e-02 1.267000090940932199e-03 2.420001155923083493e-04 1.979099999276461366e-02 5.060000631007612092e-04 6.050000579677598930e-04 1.972099999660263323e-02 -3.469997928016809829e-04 -1.280000006267156820e-03 1.999900000319395146e-02 -1.439999157788696626e-04 3.680000093864427410e-04 2.030000000042727140e-02 -1.199977071163251934e-05 -1.497999979917159644e-03 2.101400000156255707e-02 3.071000544163155020e-03 -5.939999750562774752e-03 1.719599998898185128e-02 1.267999096831450966e-03 1.519300014039409383e-02 4.454499997782489229e-02 7.280001430017386203e-04 -4.629999254001423829e-04 1.956299999644402557e-02 -5.048999534766716348e-03 -4.822000363662614676e-03 1.821500003268633136e-02 1.009599991877043780e-02 1.210007505197463132e-04 -1.305800005584932533e-02 -2.410007297177987223e-04 -6.590001592962761202e-04 -1.412279999980114442e-01 -2.718000085135687926e-03 -3.770002261289155622e-04 -2.058899998462045480e-02 -7.140000021682712562e-03 -7.140005536956386088e-04 -1.371099995987503338e-02 -3.879992751711436121e-04 -1.213700006428721639e-02 -3.498199998573493091e-02 3.267000120810758905e-03 -3.002999772153309727e-03 -1.925900001503373996e-02 -1.227000068306147640e-03 -5.850001131654243135e-04 -2.038999999264279328e-02 -1.664000099892653725e-03 -8.700014511608487996e-05 -1.928899999072805974e-02 -7.540001596524234474e-04 6.019999223230041926e-04 -2.067499999643935063e-02 1.242999782499074057e-03 1.322000072742317419e-03 -2.129000000818169480e-02 -1.980000011088230583e-03 -1.346000170175937769e-03 -2.045099998772620040e-02 1.489999963704062829e-03 -1.056999908345262595e-03 -2.105800000716877285e-02 7.579996538738395994e-04 3.120000037393140177e-03 -1.995700000730054463e-02 -1.716000317998617967e-03 2.716999849858361959e-03 -2.038299999324187303e-02 9.479998371281778006e-04 6.950000517359263951e-04 -1.998400000592704187e-02 1.399963687853652414e-05 3.146999978418271032e-03 -2.266600000322074177e-02
1.060033401131132860e-04 -4.194599996163119598e-02 3.038600004131376819e-02 2.139199936175100597e-02 9.806001636590408813e-03 1.872899987212426828e-02 -1.928400072834049808e-02 1.092699855929312423e-02 1.776700009553017212e-02 -2.215999870361740325e-03 -1.545000165282248540e-03 2.317000013775263965e-03 1.585600086161519096e-02 -1.239899881458211145e-02 -1.379100007513775830e-02 -1.565199909524037439e-02 -1.307500119898464229e-02 -1.523699990054291215e-02 -9.019982192969503831e-04 -2.229900005116759731e-02 1.707000002725285459e-02 6.960000054289817040e-04 -1.589999485549980845e-04 -1.195000003682998233e-03 1.777000080577278724e-03 -1.082999865845758443e-03 -2.410000087269999745e-04 -4.899996137134320388e-04 -5.282000039446127157e-03 -2.389999992019205353e-03 -1.049999939415299918e-03 -7.880000792329693244e-04 1.790000065829628945e-04 -2.409999476445003205e-04 -6.300000173748483310e-04 8.530000019595773827e-04 3.360001740594943925e-04 -2.172999972830203658e-03 1.760000000315887136e-03 -2.660000430864251759e-04 4.799999786547304390e-04 -1.228999999011179270e-03 3.939999695990244622e-04 4.470000304146272744e-04 6.169999973786792317e-04 -4.729998184087017454e-04 -2.369000035334598107e-03 4.390000049772299910e-04 3.839917763051300188e-04 1.100950000476477730e-01 1.862699988790907091e-02 9.773000861930336569e-03 -8.170999216719104438e-03 4.419599995421626820e-02 -1.254799925201070289e-02 -6.600000903980081726e-03 4.507900007585573243e-02 2.394000162660574974e-03 -7.159997993052391162e-04 1.965799998750066002e-02 -6.529995283508451985e-04 -4.573000026623139265e-03 2.278900000817232763e-02 6.780005035480659832e-04 -5.001999926058154668e-03 2.269000000125391547e-02 -1.290000115624901711e-03 2.940999921764228010e-03 1.934900000418291952e-02 1.263000090754905127e-03 2.430001152698097811e-04 1.977099999278569484e-02 5.040000631637039756e-04 6.030000578005173225e-04 1.970499999661566928e-02 -3.479997930318671573e-04 -1.279000006370755674e-03 1.997100000319847191e-02 -1.419999158357159602e-04 3.670000095137302201e-04 2.027600000041723111e-02 -8.999770665249266123e-06 -1.499999979709247663e-03 2.099500000154799415e-02 3.072000543377606009e-03 -5.930999750506122693e-03 1.717699998896734040e-02 1.269999097571770713e-03 1.518000014050140470e-02 4.450099997782683975e-02 7.220001426108998543e-04 -4.589999258699059993e-04 1.954699999647314598e-02 -5.044999535341935376e-03 -4.816000363382068328e-03 1.819300003265826235e-02 1.009099991872792514e-02 1.220007501475882768e-04 -1.305200005582272428e-02 -2.380007295274049416e-04 -6.540001589665010544e-04 -1.411249999980330183e-01 -2.717000085442081159e-03 -3.720002260402999108e-04 -2.057599998463097157e-02 -7.135000021384063640e-03 -7.170005533045019060e-04 -1.369799995989963610e-02 -3.859992754869287761e-04 -1.213100006411098331e-02 -3.495699998575196865e-02 3.263000121017217790e-03 -3.004999772445842050e-03 -1.924900001500966240e-02 -1.226000067801039616e-03 -5.900001130668199338e-04 -2.036699999264331845e-02 -1.663000099614436473e-03 -8.900014501748042728e-05 -1.926599999073157904e-02 -7.530001596452558709e-04 6.029999224136176061e-04 -2.065999999644587207e-02 1.239999782830842126e-03 1.319000072534405425e-03 -2.127100000816213934e-02 -1.980000010529571561e-03 -1.352000170156958739e-03 -2.043199998772020354e-02 1.491999963744349662e-03 -1.055999908173025671e-03 -2.103700000718081164e-02 7.589996544104190852e-04 3.114000037483753529e-03 -1.994200000730007166e-02 -1.716000317607779130e-03 2.712999849874344303e-03 -2.036699999323788104e-02 9.449998371519049501e-04 6.960000515270154059e-04 -1.996600000591148422e-02 1.499963794065556402e-05 3.134999978521870161e-03 -2.263800000321427447e-02
1.050033374754462672e-04 -4.191199996171881409e-02 3.037400004128532754e-02 2.138199936210707572e-02 9.801001635830112677e-03 1.872499987218445919e-02 -1.927500072791431956e-02 1.092099855996880343e-02 1.776200009548648331e-02 -2.217999870345180920e-03 -1.545000165430512537e-03 2.320000013786303709e-03 1.584500086103775296e-02 -1.239099881540904960e-02 -1.378600007508503159e-02 -1.563999909604470856e-02 -1.306400119807208521e-02 -1.523199990062013877e-02 -9.009982201399229689e-04 -2.228800005109396465e-02 1.706800002723634843e-02 6.950000054234618981e-04 -1.589999486316272172e-04 -1.196000003677478258e-03 1.780000080658428619e-03 -1.083999865617868603e-03 -2.400000087425606637e-04 -4.909996134810215096e-04 -5.285000039520757961e-03 -2.388999992010689029e-03 -1.050999939264039536e-03 -7.900000793085996302e-04 1.790000065904805084e-04 -2.399999475578303400e-04 -6.310000172972203471e-04 8.550000019550563083e-04 3.350001743896146851e-04 -2.176999972900839960e-03 1.765000000325402541e-03 -2.670000431730951292e-04 4.809999785771023467e-04 -1.230999999006658196e-03 3.949999695344339552e-04 4.480000304922552527e-04 6.189999973721604064e-04 -4.709998181762911434e-04 -2.372000035182338790e-03 4.400000049691869699e-04 3.839917773214424871e-04 1.100820000476537691e-01 1.863299988792205611e-02 9.773000862124108651e-03 -8.173999216725099173e-03 4.418999995421926674e-02 -1.254899925191851201e-02 -6.601000904052715598e-03 4.508200007586224412e-02 2.394000162898505309e-03 -7.189997993032414382e-04 1.965999998750365962e-02 -6.509995281995846353e-04 -4.575000026471878582e-03 2.278900000816328625e-02 6.770005037749567307e-04 -5.004999926133783805e-03 2.269000000126243297e-02 -1.290000115213631301e-03 2.935999921770221250e-03 1.935500000418791458e-02 1.263000090706874103e-03 2.440001152748041556e-04 1.977599999278469370e-02 5.040000631857834276e-04 6.030000578045128243e-04 1.970899999661566981e-02 -3.479997930042678695e-04 -1.279000006365761189e-03 1.997600000319847344e-02 -1.419999158136365353e-04 3.670000095177257220e-04 2.028000000041723164e-02 -8.999770637649990109e-06 -1.499999979704253177e-03 2.100000000154799568e-02 3.078000543659694960e-03 -5.933999750042352576e-03 1.718699998893721825e-02 1.268999097372479042e-03 1.518300014043076802e-02 4.450599997782935663e-02 7.170001425093180123e-04 -4.569999262390674120e-04 1.955599999649874909e-02 -5.043999535098485018e-03 -4.819000363303441517e-03 1.819600003265573612e-02 1.008599991899897588e-02 1.190007497774280161e-04 -1.304400005579212790e-02 -2.400007294832460592e-04 -6.540001591097705652e-04 -1.411169999980219636e-01 -2.717000085490111749e-03 -3.710002260353055634e-04 -2.057099998463196924e-02 -7.133000020978312421e-03 -7.220005531482469189e-04 -1.369299995990568182e-02 -3.859992755349597455e-04 -1.213000006410598977e-02 -3.495199998575296285e-02 3.255000121114928063e-03 -3.005999773046888739e-03 -1.924500001496450702e-02 -1.224000067697810076e-03 -5.910001129105650662e-04 -2.036199999265336097e-02 -1.656000099474215677e-03 -9.100014449006639885e-05 -1.926799999076822187e-02 -7.520001594183650748e-04 5.999999224892477905e-04 -2.065999999644839435e-02 1.238999782906472684e-03 1.318000072458775035e-03 -2.127100000815562025e-02 -1.980000010513012325e-03 -1.352000170153962004e-03 -2.042899998772020401e-02 1.491999963825499809e-03 -1.056999908172026820e-03 -2.103600000717981144e-02 7.599996548216895196e-04 3.109000037565376809e-03 -1.993600000730059649e-02 -1.716000317434439272e-03 2.710999849878339540e-03 -2.036299999323588211e-02 9.449998372275352073e-04 6.950000515270153816e-04 -1.996600000591048502e-02 1.499963902155859231e-05 3.120999978525865540e-03 -2.263400000320029207e-02
1.060033315233120118e-04 -4.183599996168014395e-02 3.033700004120389038e-02 2.133999936345021275e-02 9.782001632636660310e-03 1.870799987243527279e-02 -1.923800072664681032e-02 1.090299856275014044e-02 1.774500009530022987e-02 -2.213999870501961228e-03 -1.543000165128990443e-03 2.319000013762226482e-03 1.581600085969461431e-02 -1.237199881758534528e-02 -1.376900007494393473e-02 -1.561199909722002337e-02 -1.304700119593445867e-02 -1.521199990079167425e-02 -8.999982234913813783e-04 -2.224500005103631495e-02 1.705000002718787613e-02 6.970000052832411039e-04 -1.569999484783689845e-04 -1.194000003690515524e-03 1.775000080663948713e-03 -1.083999865995020906e-03 -2.390000087149613786e-04 -4.909996142853549975e-04 -5.274000039515763967e-03 -2.383999992021676104e-03 -1.048999939247479817e-03 -7.900000791543424893e-04 1.820000065794408282e-04 -2.399999475633502030e-04 -6.310000172982192226e-04 8.540000019550563924e-04 3.380001741572040419e-04 -2.173999972674947774e-03 1.764000000305846220e-03 -2.660000429241249895e-04 4.779999786567281955e-04 -1.226999999009181471e-03 3.919999697558048182e-04 4.450000302643655867e-04 6.179999973917165703e-04 -4.739998183275516224e-04 -2.370000035409229946e-03 4.400000049837487809e-04 3.849917821932503296e-04 1.100170000477214138e-01 1.862499988798146239e-02 9.769000862024751833e-03 -8.173999217045599744e-03 4.417199995424134912e-02 -1.254499925233694933e-02 -6.597000903771171182e-03 4.506100007583617451e-02 2.394000163011127027e-03 -7.209997993102335067e-04 1.965299998750565796e-02 -6.529995279412224504e-04 -4.579000026631130198e-03 2.278100000817832177e-02 6.790005039466489754e-04 -5.007999925992513528e-03 2.268000000125439120e-02 -1.289000114068137746e-03 2.920999921847849436e-03 1.935700000419737429e-02 1.263000090836055057e-03 2.420001152708086594e-04 1.977199999278669504e-02 5.040000632393342329e-04 6.020000578005172982e-04 1.970499999661666848e-02 -3.479997928750867527e-04 -1.281000006369756739e-03 1.997200000320047131e-02 -1.429999157010150047e-04 3.650000094351033963e-04 2.027300000042474987e-02 -7.999770536068172492e-06 -1.501999979637612956e-03 2.099100000154447213e-02 3.088000543314662824e-03 -5.928999749280057172e-03 1.719299998887702588e-02 1.268999097704823654e-03 1.517700014040879175e-02 4.448399997783535759e-02 7.050001419097958778e-04 -4.489999271456316461e-04 1.955699999655699864e-02 -5.041999534963783475e-03 -4.821000363155177569e-03 1.819300003264669521e-02 1.008199991917231760e-02 1.170007494789024945e-04 -1.304000005576805114e-02 -2.400007293419542415e-04 -6.520001590568301171e-04 -1.410639999980239645e-01 -2.713000085753994317e-03 -3.670002257257923089e-04 -2.056399998465804208e-02 -7.132000020821533184e-03 -7.240005530716178347e-04 -1.369199995990920404e-02 -3.869992753395403513e-04 -1.213200006417363037e-02 -3.494399998574544697e-02 3.242000121482039362e-03 -3.010999774032079197e-03 -1.924700001488775444e-02 -1.222000067821471308e-03 -5.890001127543101258e-04 -2.035699999266639762e-02 -1.646000099048033341e-03 -9.700014373875817317e-05 -1.927299999081742363e-02 -7.510001591804346070e-04 5.969999225668759426e-04 -2.065799999645091811e-02 1.237999783090852190e-03 1.316000072389137982e-03 -2.126500000814810290e-02 -1.981000010182891978e-03 -1.356000170224598090e-03 -2.042399998771068925e-02 1.492999964225730355e-03 -1.061999908092401074e-03 -2.103200000718033480e-02 7.609996552384796272e-04 3.104000037647999290e-03 -1.992900000730112031e-02 -1.717000317012128997e-03 2.705999849810700707e-03 -2.035499999322536863e-02 9.429998375742152002e-04 6.910000513837458820e-04 -1.995800000589544737e-02 1.599964117949250950e-05 3.093999978622471742e-03 -2.261300000317884376e-02
1.060033227656906747e-04 -4.172399996173208059e-02 3.028500004109201810e-02 2.128499936539122311e-02 9.754001628445032115e-03 1.867599987276683665e-02 -1.918500072451037944e-02 1.087299856673457424e-02 1.772100009503764506e-02 -2.214999870761971256e-03 -1.540000165210613772e-03 2.313000013764749709e-03 1.578000085805999694e-02 -1.234899882028905709e-02 -1.375000007476819344e-02 -1.557399909950219451e-02 -1.301500119303553894e-02 -1.518699990103339510e-02 -8.949982277189315327e-04 -2.219100005068413636e-02 1.702400002710633894e-02 6.930000056558726198e-04 -1.619999487818888750e-04 -1.195000003663442044e-03 1.772000080151096401e-03 -1.076999866218915532e-03 -2.360000087053939263e-04 -4.859996153590904859e-04 -5.259000039126624469e-03 -2.372999992064259069e-03 -1.050999939107259131e-03 -7.920000793076006950e-04 1.800000065924782836e-04 -2.459999475097994080e-04 -6.320000177559961839e-04 8.500000019891742944e-04 3.350001733788221070e-04 -2.163999972905834238e-03 1.760000000312417255e-03 -2.630000433022762572e-04 4.829999788836188720e-04 -1.226999999030735410e-03 3.919999693555741341e-04 4.500000302603700980e-04 6.139999973867222042e-04 -4.689998184898518498e-04 -2.368000035033075712e-03 4.380000049541517477e-04 3.809917889077837298e-04 1.099280000474158886e-01 1.862199988809244006e-02 9.766000861848115819e-03 -8.173999217304455181e-03 4.413999995425790801e-02 -1.253599925227565602e-02 -6.600000903120464661e-03 4.503100007578949432e-02 2.392000163852452035e-03 -7.329997994734804932e-04 1.964099998752867962e-02 -6.479995278782796223e-04 -4.581000026268960967e-03 2.276500000815271860e-02 6.800005037992606048e-04 -5.006999925929868193e-03 2.266700000124787298e-02 -1.290000112939203693e-03 2.905999921771220806e-03 1.935600000421788119e-02 1.259000090688666782e-03 2.430001149553022194e-04 1.975899999280777281e-02 5.050000628760948707e-04 6.060000578651599142e-04 1.969399999660715467e-02 -3.429997933675073512e-04 -1.275000005998597761e-03 1.996500000316687659e-02 -1.429999159831043252e-04 3.680000094251145520e-04 2.026300000042175267e-02 -1.099977060230642856e-05 -1.501999979876490234e-03 2.097900000156103367e-02 3.100000543115370710e-03 -5.925999748367499417e-03 1.719799998880779113e-02 1.274999098398760244e-03 1.516600014083760439e-02 4.445899997781322527e-02 6.900001415426843324e-04 -4.439999282780877953e-04 1.955899999663479952e-02 -5.044999534840123243e-03 -4.823000363387062658e-03 1.818800003266525175e-02 1.006899991990818644e-02 1.080007485056979434e-04 -1.303000005568730364e-02 -2.330007287032987643e-04 -6.530001584255328267e-04 -1.409619999980616101e-01 -2.713000085390754931e-03 -3.710002257148047218e-04 -2.055299998465404815e-02 -7.125000020091182447e-03 -7.330005525332161567e-04 -1.368299995993885361e-02 -3.859992755261444771e-04 -1.212800006407702309e-02 -3.492299998575496695e-02 3.220000121590789292e-03 -3.011999775689951954e-03 -1.924100001476531860e-02 -1.219000067830863353e-03 -5.880001125154328242e-04 -2.034499999268395490e-02 -1.626000098528013714e-03 -1.030001422141664784e-04 -1.926099999092183157e-02 -7.420001589629358430e-04 5.949999232595348233e-04 -2.064599999649860060e-02 1.228999783437532229e-03 1.312000071716456790e-03 -2.125700000809442949e-02 -1.978000010116653766e-03 -1.356000169985720812e-03 -2.041199998772724733e-02 1.490999964336127458e-03 -1.061999908223684079e-03 -2.101200000716929583e-02 7.619996559964299946e-04 3.095000037737613910e-03 -1.991500000729765074e-02 -1.715000316340848643e-03 2.697999849973947532e-03 -2.034299999322841668e-02 9.389998377751543031e-04 6.890000510902147919e-04 -1.994900000587137082e-02 1.599964405673773502e-05 3.057999978650440681e-03 -2.258500000314288270e-02
4.800330865875292912e-05 -4.154199996618056917e-02 3.022300004123037315e-02 2.118999936683923710e-02 9.735001621262154639e-03 1.867799987331019915e-02 -1.907800072427961666e-02 1.086899857481402575e-02 1.770800009445101450e-02 -2.202999873005504448e-03 -1.508000164271086976e-03 2.345000013666547357e-03 1.571400085165399613e-02 -1.225699882518076558e-02 -1.365000007449578001e-02 -1.551599909882102855e-02 -1.301700118855309181e-02 -1.509099990135154799e-02 -8.589982383617894308e-04 -2.205400004801238989e-02 1.697300002677077507e-02 6.740000058617549947e-04 -1.609999501679210631e-04 -1.144000003559563503e-03 1.754000078584363976e-03 -1.052999867535310509e-03 -1.910000086300095835e-04 -4.919996175523680924e-04 -5.230000039580406934e-03 -2.372999992060107442e-03 -1.053999940888195172e-03 -7.640000794735600335e-04 2.410000065810692974e-04 -2.339999466718523796e-04 -6.360000167515419489e-04 9.470000019269316296e-04 3.520001748168678952e-04 -2.178999971565181212e-03 1.815000000233562725e-03 -2.420000420557776434e-04 4.689999805058161337e-04 -1.192999999132668019e-03 3.859999712512737313e-04 4.280000298485414395e-04 6.559999974418166332e-04 -4.699998181139249912e-04 -2.371000035081736405e-03 4.650000049626682157e-04 3.799918018328135127e-04 1.097590000473662314e-01 1.864799988826677454e-02 9.781000862394086462e-03 -8.180999216167003998e-03 4.414299995418210359e-02 -1.252599925339519665e-02 -6.586000902375150137e-03 4.502000007572030948e-02 2.378000164304009106e-03 -7.369998005053344462e-04 1.966799998760995760e-02 -6.399995275227844975e-04 -4.583000025626960891e-03 2.280200000811055672e-02 6.700005016832610372e-04 -4.977999926672186347e-03 2.268100000127410212e-02 -1.300000108368845955e-03 2.848999921061865295e-03 1.940300000433001215e-02 1.271000091907566187e-03 2.290001158918327884e-04 1.978799999275552071e-02 4.990000651284429893e-04 5.760000574083817739e-04 1.969099999667024009e-02 -3.349997912482124540e-04 -1.302000005379571126e-03 1.997900000314968907e-02 -1.469999156568561167e-04 3.650000091405733709e-04 2.028100000044683049e-02 -2.399977248589526321e-05 -1.475999980844700356e-03 2.099400000160681762e-02 3.117000542109521315e-03 -5.909999747044827022e-03 1.723499998869797156e-02 1.255999097655721665e-03 1.517400013937565510e-02 4.443399997791010886e-02 6.790001397788845636e-04 -4.189999290870465324e-04 1.958199999667054741e-02 -5.027999536288713968e-03 -4.801000362062391932e-03 1.822700003254943898e-02 1.003799992101668884e-02 9.400074617014988652e-05 -1.302100005550220312e-02 -2.370007279619903984e-04 -6.520001585802201547e-04 -1.408139999980405344e-01 -2.699000085772778213e-03 -3.650002246429957017e-04 -2.053999998473731922e-02 -7.109000019962000670e-03 -7.350005513271274825e-04 -1.368699996002517225e-02 -4.009992745970786645e-04 -1.213700006516652691e-02 -3.487799998566317589e-02 3.203000121353929627e-03 -3.004999776922725758e-03 -1.918800001467847391e-02 -1.222000067525046748e-03 -5.900001127143550232e-04 -2.031699999266540005e-02 -1.607000097316281908e-03 -1.180001407632072513e-04 -1.924699999101172482e-02 -7.450001579637595883e-04 5.849999230765946540e-04 -2.060199999647205002e-02 1.225999783521977953e-03 1.313000071518533431e-03 -2.122800000807886778e-02 -1.988000010220460079e-03 -1.352000170706063771e-03 -2.037599998767604392e-02 1.476999963699037344e-03 -1.049999909233562600e-03 -2.096300000710400388e-02 7.409996559533422057e-04 3.099000036196326077e-03 -1.986800000718573142e-02 -1.692000315179372112e-03 2.685999851759392296e-03 -2.029699999334338631e-02 9.349998380329397523e-04 6.880000508206567372e-04 -1.991600000584829028e-02 9.999648397980452554e-06 3.005999978270576176e-03 -2.251100000305782112e-02
