2.163300000000000001e+00 2.956719999999999793e+00 5.103710000000000413e+00 4.745519999999999960e+00 1.035730000000000040e+00 2.423929999999999918e+00 1.757609999999999895e+00 1.035730000000000040e+00 2.423939999999999984e+00 3.465930000000000177e+00 3.668880000000000141e+00 2.423929999999999918e+00 8.837500000000000355e-01 5.589870000000000339e+00 5.103729999999999656e+00 5.174310000000000187e+00 6.302019999999999733e+00 2.423939999999999984e+00 2.186399999999999899e+00 6.302030000000000243e+00 2.423939999999999984e+00 3.871640000000000192e+00 5.589889999999999581e+00 5.103720000000000034e+00 2.592080000000000162e+00 8.223019999999999996e+00 5.103720000000000034e+00 2.407070000000000043e+00 1.519290000000000029e+00 9.981180000000000163e+00 4.115389999999999660e+00 4.152429999999999843e+00 9.981159999999999144e+00 2.835859999999999825e+00 6.785580000000000389e+00 9.981180000000000163e+00 5.394969999999999821e+00 1.519300000000000095e+00 9.981159999999999144e+00 5.823760000000000048e+00 6.785580000000000389e+00 9.981170000000000542e+00 2.812739999999999796e+00 3.440259999999999874e+00 1.266094999999999970e+01 1.533199999999999896e+00 6.073430000000000106e+00 1.266095999999999933e+01 4.521099999999999675e+00 6.073430000000000106e+00 1.266095999999999933e+01 3.241540000000000088e+00 8.706580000000000652e+00 1.266094000000000008e+01 3.462190000000000101e+00 3.923830000000000151e+00 2.021817000000000064e+01 6.044410000000000061e+00 2.002850000000000019e+00 1.753839999999999932e+01 3.056519999999999904e+00 2.002850000000000019e+00 1.753838999999999970e+01 4.764840000000000408e+00 4.636000000000000121e+00 1.753838999999999970e+01 2.182640000000000136e+00 6.556989999999999874e+00 2.021818000000000026e+01 6.473189999999999777e+00 7.269160000000000288e+00 1.753838999999999970e+01 3.485310000000000130e+00 7.269140000000000157e+00 1.753840999999999894e+01 5.170530000000000292e+00 6.556989999999999874e+00 2.021818999999999988e+01 3.890979999999999883e+00 9.190129999999999910e+00 2.021817000000000064e+01 3.894719999999999960e+00 8.935180000000000788e+00 2.423929999999999918e+00 1.312529999999999974e+00 1.085618000000000016e+01 5.103729999999999656e+00 3.020880000000000010e+00 1.348930999999999969e+01 5.103720000000000034e+00 2.615190000000000126e+00 1.156833999999999918e+01 2.423939999999999984e+00 4.300430000000000419e+00 1.085617000000000054e+01 5.103729999999999656e+00 4.323509999999999742e+00 1.420147000000000048e+01 2.423919999999999852e+00 5.603100000000000414e+00 1.156832999999999956e+01 2.423950000000000049e+00 4.729230000000000267e+00 1.612247999999999948e+01 5.103729999999999656e+00 1.741319999999999979e+00 1.612246999999999986e+01 5.103740000000000165e+00 4.544179999999999886e+00 9.418730000000000047e+00 9.981149999999999523e+00 3.264639999999999986e+00 1.205189999999999984e+01 9.981159999999999144e+00 4.972959999999999603e+00 1.468502999999999936e+01 9.981159999999999144e+00 6.252539999999999765e+00 1.205189999999999984e+01 9.981170000000000542e+00 1.961989999999999901e+00 1.133974000000000082e+01 1.266095999999999933e+01 3.670310000000000183e+00 1.397287000000000035e+01 1.266094999999999970e+01 4.949889999999999901e+00 1.133974000000000082e+01 1.266094999999999970e+01 5.378659999999999997e+00 1.660604000000000013e+01 1.266095999999999933e+01 2.390769999999999840e+00 1.660604999999999976e+01 1.266097000000000072e+01 5.193640000000000256e+00 9.902290000000000703e+00 1.753839999999999932e+01 2.611439999999999984e+00 1.182329999999999970e+01 2.021819999999999951e+01 4.319759999999999600e+00 1.445644000000000062e+01 2.021818999999999988e+01 3.914079999999999782e+00 1.253545000000000087e+01 1.753838999999999970e+01 5.599330000000000140e+00 1.182329999999999970e+01 2.021819999999999951e+01 5.622410000000000352e+00 1.516859999999999964e+01 1.753838000000000008e+01 6.901989999999999625e+00 1.253545000000000087e+01 1.753840999999999894e+01 6.028120000000000367e+00 1.708960000000000079e+01 2.021818999999999988e+01 3.040220000000000145e+00 1.708960000000000079e+01 2.021818999999999988e+01 5.151200000000000223e+00 2.956719999999999793e+00 5.103720000000000034e+00 8.139110000000000511e+00 2.956710000000000171e+00 5.103720000000000034e+00 6.453839999999999577e+00 3.668880000000000141e+00 2.423929999999999918e+00 7.733410000000000117e+00 1.035730000000000040e+00 2.423929999999999918e+00 9.441750000000000753e+00 3.668880000000000141e+00 2.423929999999999918e+00 6.859549999999999592e+00 5.589870000000000339e+00 5.103720000000000034e+00 8.162200000000000344e+00 6.302030000000000243e+00 2.423929999999999918e+00 5.579979999999999940e+00 8.223019999999999996e+00 5.103720000000000034e+00 8.567880000000000607e+00 8.223019999999999996e+00 5.103720000000000034e+00 7.103290000000000326e+00 4.152429999999999843e+00 9.981159999999999144e+00 8.382860000000000866e+00 1.519290000000000029e+00 9.981159999999999144e+00 8.811650000000000205e+00 6.785590000000000011e+00 9.981159999999999144e+00 1.009118999999999922e+01 4.152440000000000353e+00 9.981159999999999144e+00 5.800650000000000084e+00 3.440269999999999939e+00 1.266095999999999933e+01 8.788539999999999353e+00 3.440259999999999874e+00 1.266094999999999970e+01 7.509000000000000341e+00 6.073439999999999728e+00 1.266094999999999970e+01 6.229429999999999801e+00 8.706580000000000652e+00 1.266094999999999970e+01 9.217340000000000089e+00 8.706569999999999254e+00 1.266094000000000008e+01 6.450099999999999945e+00 3.923840000000000217e+00 2.021818999999999988e+01 9.437989999999999213e+00 3.923840000000000217e+00 2.021818000000000026e+01 7.752740000000000187e+00 4.635989999999999611e+00 1.753838999999999970e+01 9.032320000000000348e+00 2.002839999999999954e+00 1.753839999999999932e+01 1.074064000000000085e+01 4.636000000000000121e+00 1.753838999999999970e+01 8.158450000000000202e+00 6.556989999999999874e+00 2.021818999999999988e+01 9.461100000000000065e+00 7.269149999999999778e+00 1.753840999999999894e+01 6.878879999999999661e+00 9.190120000000000289e+00 2.021818999999999988e+01 9.866780000000000328e+00 9.190139999999999532e+00 2.021817000000000064e+01 6.882620000000000182e+00 8.935180000000000788e+00 2.423919999999999852e+00 6.008759999999999657e+00 1.348931999999999931e+01 5.103720000000000034e+00 7.288330000000000197e+00 1.085618999999999978e+01 5.103729999999999656e+00 8.996669999999999945e+00 1.348931999999999931e+01 5.103720000000000034e+00 7.311420000000000030e+00 1.420147000000000048e+01 2.423929999999999918e+00 8.590999999999999304e+00 1.156833999999999918e+01 2.423939999999999984e+00 9.870520000000000849e+00 8.935180000000000788e+00 2.423919999999999852e+00 1.029931999999999981e+01 1.420147000000000048e+01 2.423919999999999852e+00 7.717130000000000045e+00 1.612247999999999948e+01 5.103729999999999656e+00 7.532070000000000043e+00 9.418749999999999289e+00 9.981149999999999523e+00 7.960869999999999891e+00 1.468504000000000076e+01 9.981159999999999144e+00 9.240449999999999164e+00 1.205189000000000021e+01 9.981159999999999144e+00 1.051998000000000033e+01 9.418739999999999668e+00 9.981170000000000542e+00 1.094876000000000005e+01 1.468504000000000076e+01 9.981159999999999144e+00 6.658229999999999649e+00 1.397287000000000035e+01 1.266094000000000008e+01 7.937789999999999679e+00 1.133972999999999942e+01 1.266095999999999933e+01 9.646129999999999427e+00 1.397287000000000035e+01 1.266094999999999970e+01 8.366580000000000794e+00 1.660604000000000013e+01 1.266094999999999970e+01 8.181530000000000413e+00 9.902300000000000324e+00 1.753838999999999970e+01 7.307669999999999888e+00 1.445642999999999923e+01 2.021818000000000026e+01 8.587229999999999919e+00 1.182329999999999970e+01 2.021819999999999951e+01 1.029557999999999929e+01 1.445642999999999923e+01 2.021817000000000064e+01 8.610310000000000130e+00 1.516859000000000002e+01 1.753838999999999970e+01 9.889889999999999404e+00 1.253543999999999947e+01 1.753840999999999894e+01 1.116942000000000057e+01 9.902300000000000324e+00 1.753838000000000008e+01 1.159822999999999915e+01 1.516859999999999964e+01 1.753838999999999970e+01 9.016019999999999257e+00 1.708960000000000079e+01 2.021818999999999988e+01 4.664599999999999858e-01 1.996220000000000105e+00 3.763790000000000191e+00 1.911149999999999904e+00 2.747009999999999952e+00 1.315679999999999961e+00 2.028200000000000003e-01 1.138399999999999967e-01 1.315679999999999961e+00 2.174850000000000172e+00 4.629369999999999763e+00 3.763840000000000074e+00 3.454359999999999875e+00 1.996220000000000105e+00 3.763809999999999878e+00 3.190719999999999779e+00 1.138500000000000068e-01 1.315679999999999961e+00 8.952499999999999902e-01 7.262509999999999799e+00 3.763799999999999812e+00 6.316100000000000048e-01 5.380150000000000432e+00 1.315679999999999961e+00 3.883150000000000102e+00 7.262520000000000309e+00 3.763799999999999812e+00 3.619520000000000071e+00 5.380150000000000432e+00 1.315669999999999895e+00 5.426470000000000127e+00 6.511759999999999771e+00 6.212040000000000006e+00 4.268959999999999866e+00 5.863699999999999690e+00 8.872899999999999565e+00 2.009780000000000122e+00 1.245449999999999946e+00 6.212030000000000385e+00 3.718109999999999804e+00 3.878600000000000048e+00 6.212010000000000254e+00 2.438559999999999839e+00 6.511750000000000149e+00 6.212030000000000385e+00 1.115920000000000023e+00 2.479769999999999808e+00 1.132103999999999999e+01 2.560610000000000053e+00 3.230570000000000164e+00 8.872899999999999565e+00 8.522699999999999720e-01 5.974099999999999966e-01 8.872899999999999565e+00 2.824289999999999967e+00 5.112940000000000040e+00 1.132107000000000063e+01 4.103819999999999801e+00 2.479769999999999808e+00 1.132103000000000037e+01 3.840180000000000149e+00 5.974199999999999511e-01 8.872899999999999565e+00 1.544699999999999962e+00 7.746069999999999567e+00 1.132102000000000075e+01 1.281060000000000088e+00 5.863699999999999690e+00 8.872909999999999187e+00 4.532600000000000406e+00 7.746080000000000076e+00 1.132103999999999999e+01 4.997679999999999900e+00 1.245449999999999946e+00 6.212040000000000006e+00 6.075919999999999987e+00 6.995320000000000427e+00 1.376925999999999917e+01 4.918400000000000105e+00 6.347269999999999968e+00 1.643014000000000152e+01 2.659219999999999917e+00 1.729020000000000001e+00 1.376925999999999917e+01 4.367569999999999730e+00 4.362149999999999750e+00 1.376923999999999992e+01 3.088010000000000144e+00 6.995320000000000427e+00 1.376927000000000056e+01 3.210059999999999913e+00 3.714119999999999866e+00 1.643014000000000152e+01 1.501719999999999944e+00 1.080959999999999921e+00 1.643014000000000152e+01 4.489620000000000388e+00 1.080959999999999921e+00 1.643014000000000152e+01 1.930520000000000014e+00 6.347260000000000346e+00 1.643015000000000114e+01 5.647140000000000271e+00 1.729009999999999936e+00 1.376925999999999917e+01 1.765360000000000040e+00 2.963330000000000020e+00 1.887826000000000093e+01 5.182050000000000267e+00 8.229630000000000223e+00 1.887827000000000055e+01 3.473749999999999893e+00 5.596490000000000187e+00 1.887829999999999941e+01 3.308670000000000222e+00 2.212569999999999926e+00 2.132649999999999935e+01 4.753260000000000041e+00 2.963330000000000020e+00 1.887826000000000093e+01 5.017009999999999970e+00 4.845710000000000406e+00 2.132648000000000010e+01 2.194150000000000045e+00 8.229639999999999844e+00 1.887827000000000055e+01 3.737470000000000070e+00 7.478880000000000194e+00 2.132649999999999935e+01 6.296570000000000000e+00 2.212559999999999860e+00 2.132648999999999972e+01 6.725360000000000227e+00 7.478869999999999685e+00 2.132648999999999972e+01 4.048300000000000232e+00 1.064645999999999937e+01 1.315660000000000052e+00 4.311939999999999884e+00 1.252881000000000000e+01 3.763809999999999878e+00 3.032410000000000050e+00 1.516197999999999979e+01 3.763830000000000009e+00 1.060389999999999944e+00 1.064645999999999937e+01 1.315669999999999895e+00 2.339949999999999974e+00 8.013310000000000599e+00 1.315660000000000052e+00 2.603619999999999823e+00 9.895670000000000854e+00 3.763840000000000074e+00 1.324040000000000106e+00 1.252881999999999962e+01 3.763799999999999812e+00 2.768740000000000201e+00 1.327960000000000029e+01 1.315669999999999895e+00 5.855240000000000222e+00 1.177806999999999960e+01 6.212040000000000006e+00 3.681869999999999976e+00 1.564554000000000045e+01 1.132105999999999923e+01 4.697750000000000092e+00 1.113001000000000040e+01 8.872909999999999187e+00 4.146889999999999965e+00 9.144899999999999807e+00 6.212010000000000254e+00 4.961400000000000254e+00 1.301238999999999990e+01 1.132103999999999999e+01 2.867350000000000065e+00 1.177805000000000035e+01 6.212019999999999875e+00 4.575680000000000192e+00 1.441119999999999912e+01 6.212010000000000254e+00 2.989390000000000214e+00 8.496859999999999857e+00 8.872899999999999565e+00 3.253080000000000194e+00 1.037923999999999936e+01 1.132105999999999923e+01 1.973500000000000032e+00 1.301238000000000028e+01 1.132103999999999999e+01 3.418190000000000062e+00 1.376317000000000057e+01 8.872899999999999565e+00 1.709840000000000027e+00 1.113000000000000078e+01 8.872920000000000584e+00 6.504710000000000214e+00 1.226160999999999923e+01 1.376927000000000056e+01 4.067630000000000301e+00 1.424671999999999983e+01 1.643012999999999835e+01 5.347190000000000332e+00 1.161358000000000068e+01 1.643012999999999835e+01 4.796359999999999957e+00 9.628450000000000841e+00 1.376923999999999992e+01 2.359309999999999796e+00 1.161356999999999928e+01 1.643012999999999835e+01 3.516799999999999926e+00 1.226160999999999923e+01 1.376925999999999917e+01 5.225150000000000183e+00 1.489476999999999940e+01 1.376923999999999992e+01 3.638840000000000074e+00 8.980420000000000513e+00 1.643012999999999835e+01 7.154160000000000075e+00 1.274517999999999951e+01 2.132649999999999935e+01 4.166260000000000296e+00 1.274516999999999989e+01 2.132649999999999935e+01 4.331319999999999837e+00 1.612909000000000148e+01 1.887830999999999904e+01 5.610839999999999606e+00 1.349592999999999954e+01 1.887828000000000017e+01 5.874590000000000423e+00 1.537831000000000081e+01 2.132646000000000086e+01 3.902530000000000054e+00 1.086279000000000039e+01 1.887829999999999941e+01 5.445809999999999818e+00 1.011200999999999972e+01 2.132648000000000010e+01 2.622939999999999827e+00 1.349593999999999916e+01 1.887827000000000055e+01 8.150650000000000617e+00 4.629380000000000273e+00 3.763830000000000009e+00 6.607409999999999783e+00 5.380150000000000432e+00 1.315679999999999961e+00 6.871059999999999945e+00 7.262509999999999799e+00 3.763799999999999812e+00 4.899049999999999905e+00 2.746989999999999821e+00 1.315679999999999961e+00 5.162729999999999819e+00 4.629369999999999763e+00 3.763840000000000074e+00 6.442260000000000097e+00 1.996210000000000040e+00 3.763799999999999812e+00 7.886960000000000193e+00 2.747009999999999952e+00 1.315679999999999961e+00 6.178630000000000067e+00 1.138399999999999967e-01 1.315660000000000052e+00 9.693910000000000693e+00 3.878589999999999982e+00 6.212010000000000254e+00 8.800090000000000856e+00 5.112930000000000419e+00 1.132107000000000063e+01 7.256859999999999644e+00 5.863710000000000200e+00 8.872909999999999187e+00 6.706010000000000026e+00 3.878589999999999982e+00 6.211999999999999744e+00 7.985579999999999679e+00 1.245460000000000012e+00 6.212030000000000385e+00 7.520520000000000316e+00 7.746080000000000076e+00 1.132103999999999999e+01 8.414360000000000284e+00 6.511750000000000149e+00 6.212030000000000385e+00 5.548499999999999766e+00 3.230570000000000164e+00 8.872899999999999565e+00 5.812190000000000190e+00 5.112930000000000419e+00 1.132105999999999923e+01 7.091719999999999580e+00 2.479779999999999873e+00 1.132103999999999999e+01 8.536400000000000432e+00 3.230560000000000098e+00 8.872899999999999565e+00 6.828070000000000306e+00 5.974099999999999966e-01 8.872909999999999187e+00 9.185850000000000293e+00 3.714109999999999800e+00 1.643011999999999873e+01 1.034336000000000055e+01 4.362149999999999750e+00 1.376923000000000030e+01 7.906320000000000014e+00 6.347260000000000346e+00 1.643014000000000152e+01 7.355459999999999887e+00 4.362149999999999750e+00 1.376923999999999992e+01 8.635030000000000427e+00 1.729009999999999936e+00 1.376925999999999917e+01 7.477529999999999788e+00 1.080969999999999986e+00 1.643014000000000152e+01 9.063819999999999766e+00 6.995320000000000427e+00 1.376927000000000056e+01 6.197960000000000136e+00 3.714129999999999932e+00 1.643012999999999835e+01 9.284470000000000667e+00 2.212579999999999991e+00 2.132649999999999935e+01 1.099282000000000004e+01 4.845710000000000406e+00 2.132646000000000086e+01 8.169950000000000045e+00 8.229630000000000223e+00 1.887827000000000055e+01 6.461649999999999672e+00 5.596499999999999808e+00 1.887830999999999904e+01 9.713260000000000005e+00 7.478880000000000194e+00 2.132648999999999972e+01 7.741170000000000329e+00 2.963319999999999954e+00 1.887826000000000093e+01 8.004920000000000258e+00 4.845710000000000406e+00 2.132648000000000010e+01 9.449550000000000338e+00 5.596490000000000187e+00 1.887829999999999941e+01 9.008219999999999672e+00 1.516198999999999941e+01 3.763830000000000009e+00 7.036200000000000010e+00 1.064644999999999975e+01 1.315669999999999895e+00 5.327849999999999753e+00 8.013299999999999201e+00 1.315669999999999895e+00 5.591529999999999667e+00 9.895680000000000476e+00 3.763840000000000074e+00 8.315739999999999910e+00 8.013299999999999201e+00 1.315679999999999961e+00 8.579430000000000334e+00 9.895680000000000476e+00 3.763840000000000074e+00 5.756639999999999979e+00 1.327960999999999991e+01 1.315660000000000052e+00 6.020310000000000272e+00 1.516198999999999941e+01 3.763830000000000009e+00 7.299839999999999662e+00 1.252881999999999962e+01 3.763799999999999812e+00 8.744540000000000646e+00 1.327960999999999991e+01 1.315660000000000052e+00 1.055147999999999975e+01 1.441121000000000052e+01 6.212010000000000254e+00 7.134789999999999743e+00 9.144899999999999807e+00 6.211999999999999744e+00 9.657669999999999533e+00 1.564554000000000045e+01 1.132107000000000063e+01 7.563600000000000101e+00 1.441121000000000052e+01 6.212010000000000254e+00 8.843149999999999622e+00 1.177805000000000035e+01 6.212030000000000385e+00 5.977289999999999992e+00 8.496869999999999479e+00 8.872909999999999187e+00 6.240980000000000416e+00 1.037925000000000075e+01 1.132107000000000063e+01 8.965199999999999392e+00 8.496869999999999479e+00 8.872899999999999565e+00 9.228880000000000194e+00 1.037925000000000075e+01 1.132107000000000063e+01 6.406080000000000219e+00 1.376317000000000057e+01 8.872899999999999565e+00 6.669769999999999754e+00 1.564555000000000007e+01 1.132107000000000063e+01 7.949300000000000033e+00 1.301237000000000066e+01 1.132103000000000037e+01 9.393980000000000885e+00 1.376317000000000057e+01 8.872889999999999944e+00 7.685640000000000249e+00 1.113000000000000078e+01 8.872909999999999187e+00 1.012269000000000041e+01 9.144899999999999807e+00 6.212010000000000254e+00 1.120093999999999923e+01 1.489475000000000016e+01 1.376923000000000030e+01 7.784250000000000114e+00 9.628460000000000463e+00 1.376923000000000030e+01 8.335100000000000620e+00 1.161356999999999928e+01 1.643014000000000152e+01 8.213050000000000850e+00 1.489475999999999978e+01 1.376923000000000030e+01 9.492599999999999483e+00 1.226160999999999923e+01 1.376925999999999917e+01 6.626739999999999853e+00 8.980430000000000135e+00 1.643014000000000152e+01 9.614649999999999253e+00 8.980430000000000135e+00 1.643012999999999835e+01 7.055530000000000079e+00 1.424671999999999983e+01 1.643011999999999873e+01 1.004344000000000037e+01 1.424672999999999945e+01 1.643012999999999835e+01 1.077214999999999989e+01 9.628450000000000841e+00 1.376923000000000030e+01 1.185039000000000087e+01 1.537832000000000043e+01 2.132647000000000048e+01 1.142159999999999975e+01 1.011201999999999934e+01 2.132647000000000048e+01 6.890419999999999767e+00 1.086280999999999963e+01 1.887830999999999904e+01 8.433699999999999974e+00 1.011200999999999972e+01 2.132646000000000086e+01 9.878330000000000055e+00 1.086279000000000039e+01 1.887829999999999941e+01 7.319219999999999615e+00 1.612911000000000072e+01 1.887830999999999904e+01 1.014204999999999934e+01 1.274516999999999989e+01 2.132648999999999972e+01 8.598739999999999384e+00 1.349593999999999916e+01 1.887828000000000017e+01 8.862500000000000711e+00 1.537832000000000043e+01 2.132647000000000048e+01 1.030711999999999939e+01 1.612910000000000110e+01 1.887829999999999941e+01