-2.801367487569999867e+03
-2.801352544230000149e+03
-2.801258897040000193e+03
-2.801087115530000119e+03
-2.800838519649999853e+03
-2.800514925439999843e+03
-2.800118791989999863e+03
-2.799653231289999894e+03
-2.799121748909999951e+03
-2.798528419220000160e+03
