-6.910140000000000171e-01 -1.213599999999999957e-01 1.833100000000000007e-02 6.897189999999999710e-01 1.204490000000000005e-01 -1.710800000000000168e-02 6.915569999999999773e-01 1.209510000000000030e-01 -1.723299999999999832e-02 6.907630000000000159e-01 1.232469999999999954e-01 -1.719000000000000042e-02 -6.906809999999999894e-01 -1.220230000000000065e-01 1.747399999999999995e-02 6.894069999999999920e-01 1.220979999999999982e-01 -1.788000000000000006e-02 6.919319999999999915e-01 1.223780000000000007e-01 -1.838000000000000050e-02 -6.908910000000000329e-01 -1.230310000000000015e-01 1.733799999999999925e-02 -6.906759999999999566e-01 -1.217850000000000044e-01 1.674600000000000047e-02 6.916949999999999488e-01 1.212850000000000039e-01 -1.775699999999999848e-02 6.907219999999999471e-01 1.227800000000000002e-01 -1.748900000000000107e-02 6.917489999999999473e-01 1.219760000000000011e-01 -1.831500000000000142e-02 6.898750000000000160e-01 1.206369999999999942e-01 -1.767200000000000021e-02 6.897330000000000405e-01 1.217069999999999957e-01 -1.801200000000000023e-02 -6.910549999999999748e-01 -1.212320000000000064e-01 1.822899999999999868e-02 -6.910119999999999596e-01 -1.220819999999999961e-01 1.800799999999999970e-02 -6.911500000000000421e-01 -1.228670000000000040e-01 1.750099999999999920e-02 -6.908990000000000409e-01 -1.219490000000000018e-01 1.729899999999999841e-02 -6.908530000000000504e-01 -1.213609999999999967e-01 1.797899999999999845e-02 6.899739999999999762e-01 1.207870000000000055e-01 -1.778800000000000173e-02 6.915329999999999533e-01 1.212700000000000028e-01 -1.742199999999999999e-02 6.907050000000000134e-01 1.228560000000000069e-01 -1.750600000000000073e-02 -6.906189999999999829e-01 -1.216629999999999934e-01 1.769799999999999846e-02 6.899410000000000265e-01 1.217180000000000067e-01 -1.795100000000000168e-02 6.915879999999999805e-01 1.223950000000000038e-01 -1.831299999999999942e-02 -6.908790000000000209e-01 -1.225230000000000069e-01 1.732399999999999912e-02 -6.906369999999999454e-01 -1.216909999999999936e-01 1.715799999999999964e-02 6.912679999999999936e-01 1.209790000000000032e-01 -1.792699999999999849e-02 -6.900380000000000402e-01 -1.209459999999999980e-01 1.694199999999999873e-02 -6.909720000000000306e-01 -1.218299999999999939e-01 1.821800000000000155e-02 6.918499999999999650e-01 1.226150000000000018e-01 -1.818399999999999878e-02 -6.913270000000000248e-01 -1.212970000000000020e-01 1.750099999999999920e-02 6.915160000000000196e-01 1.219060000000000005e-01 -1.730100000000000041e-02 6.902829999999999799e-01 1.221330000000000054e-01 -1.846300000000000024e-02 -6.913350000000000328e-01 -1.219859999999999972e-01 1.744199999999999917e-02 -6.904329999999999634e-01 -1.223660000000000025e-01 1.655999999999999833e-02 6.911730000000000373e-01 1.209070000000000006e-01 -1.744800000000000170e-02 6.920209999999999972e-01 1.231050000000000061e-01 -1.830800000000000136e-02 6.916879999999999695e-01 1.223869999999999958e-01 -1.780599999999999891e-02 6.905499999999999972e-01 1.223260000000000042e-01 -1.839800000000000116e-02 -6.902199999999999447e-01 -1.213280000000000053e-01 1.707300000000000137e-02 -6.902949999999999919e-01 -1.215100000000000069e-01 1.795300000000000021e-02 -6.913310000000000288e-01 -1.216089999999999949e-01 1.791500000000000037e-02 -6.911300000000000221e-01 -1.218140000000000056e-01 1.749699999999999867e-02 -6.904130000000000544e-01 -1.223080000000000001e-01 1.673300000000000134e-02 6.910659999999999581e-01 1.208820000000000033e-01 -1.771500000000000158e-02 -6.903470000000000439e-01 -1.210429999999999978e-01 1.724099999999999938e-02 -6.904749999999999499e-01 -1.223049999999999971e-01 1.801699999999999829e-02 6.920389999999999597e-01 1.226990000000000025e-01 -1.769599999999999992e-02 -6.912490000000000023e-01 -1.216629999999999934e-01 1.768300000000000080e-02 6.916120000000000045e-01 1.219129999999999936e-01 -1.729100000000000081e-02 6.903669999999999529e-01 1.221290000000000014e-01 -1.815800000000000053e-02 -6.911680000000000046e-01 -1.219400000000000067e-01 1.733499999999999971e-02 -6.906130000000000324e-01 -1.224739999999999995e-01 1.675199999999999953e-02 -6.901770000000000405e-01 -1.211559999999999998e-01 1.709199999999999955e-02 -6.913580000000000281e-01 -1.215080000000000049e-01 1.759799999999999906e-02 6.920340000000000380e-01 1.231440000000000035e-01 -1.779999999999999985e-02 6.912709999999999688e-01 1.204500000000000015e-01 -1.747100000000000042e-02 6.904890000000000194e-01 1.224729999999999985e-01 -1.783300000000000163e-02 -6.909060000000000201e-01 -1.219340000000000007e-01 1.804800000000000154e-02 6.913209999999999633e-01 1.220929999999999932e-01 -1.733900000000000025e-02 -6.905510000000000259e-01 -1.222850000000000048e-01 1.642700000000000063e-02 -6.910049999999999804e-01 -1.216489999999999932e-01 1.697500000000000051e-02 6.920049999999999812e-01 1.228910000000000002e-01 -1.817699999999999871e-02 6.910709999999999908e-01 1.206210000000000060e-01 -1.786599999999999994e-02 6.912479999999999736e-01 1.218560000000000060e-01 -1.754700000000000010e-02 6.905210000000000514e-01 1.218609999999999971e-01 -1.815800000000000053e-02 -6.902500000000000302e-01 -1.209689999999999932e-01 1.706999999999999837e-02 -6.912179999999999991e-01 -1.214719999999999966e-01 1.780100000000000085e-02 -6.906510000000000149e-01 -1.221700000000000008e-01 1.839299999999999963e-02 -6.904179999999999762e-01 -1.224930000000000047e-01 1.688900000000000123e-02 -6.914069999999999938e-01 -1.218940000000000023e-01 1.772599999999999870e-02 -6.900319999999999787e-01 -1.210799999999999932e-01 1.692899999999999960e-02 -6.912719999999999976e-01 -1.217870000000000064e-01 1.748100000000000001e-02 6.922249999999999792e-01 1.230160000000000003e-01 -1.817099999999999965e-02 6.910910000000000108e-01 1.209130000000000066e-01 -1.782100000000000004e-02 6.905550000000000299e-01 1.220699999999999980e-01 -1.837099999999999844e-02 -6.909039999999999626e-01 -1.216919999999999946e-01 1.805299999999999960e-02 6.913920000000000066e-01 1.221060000000000062e-01 -1.779599999999999932e-02 -6.905350000000000099e-01 -1.221919999999999951e-01 1.673200000000000034e-02 -6.912930000000000463e-01 -1.218049999999999966e-01 1.745700000000000029e-02 6.917419999999999680e-01 1.216750000000000054e-01 -1.731399999999999953e-02 -6.906219999999999581e-01 -1.219679999999999931e-01 1.779499999999999832e-02 -6.909440000000000026e-01 -1.212109999999999993e-01 1.796800000000000133e-02 -6.909929999999999684e-01 -1.228640000000000010e-01 1.738400000000000015e-02 6.919279999999999875e-01 1.221679999999999988e-01 -1.819000000000000131e-02 6.906090000000000284e-01 1.226679999999999993e-01 -1.751499999999999932e-02 6.902289999999999814e-01 1.210200000000000026e-01 -1.761300000000000018e-02 6.898030000000000550e-01 1.218100000000000016e-01 -1.779700000000000032e-02 -6.907480000000000286e-01 -1.219029999999999975e-01 1.697399999999999951e-02 6.918429999999999858e-01 1.211740000000000039e-01 -1.726300000000000057e-02 6.918490000000000473e-01 1.224080000000000029e-01 -1.844300000000000106e-02 6.903820000000000512e-01 1.231290000000000023e-01 -1.747100000000000042e-02 6.898840000000000527e-01 1.207629999999999953e-01 -1.752400000000000138e-02 6.900739999999999652e-01 1.221809999999999979e-01 -1.831199999999999842e-02 -6.908840000000000536e-01 -1.216720000000000024e-01 1.781800000000000050e-02 -6.913000000000000256e-01 -1.212779999999999969e-01 1.815599999999999853e-02 -6.912350000000000438e-01 -1.225070000000000048e-01 1.706699999999999884e-02 -6.907489999999999464e-01 -1.217420000000000030e-01 1.710100000000000162e-02 6.917999999999999705e-01 1.211969999999999992e-01 -1.730299999999999894e-02 -6.904829999999999579e-01 -1.218719999999999942e-01 1.776799999999999907e-02 -6.908919999999999506e-01 -1.214480000000000004e-01 1.816100000000000006e-02 -6.912789999999999768e-01 -1.228199999999999986e-01 1.772200000000000164e-02 6.917459999999999720e-01 1.225920000000000065e-01 -1.804400000000000101e-02 6.905909999999999549e-01 1.227729999999999932e-01 -1.725000000000000144e-02 6.901220000000000132e-01 1.206470000000000042e-01 -1.741099999999999939e-02 6.897929999999999895e-01 1.220249999999999946e-01 -1.763100000000000084e-02 -6.906449999999999534e-01 -1.219819999999999932e-01 1.699700000000000169e-02 3.069999999999999812e-04 5.599999999999999509e-04 -8.360000000000000460e-04 2.084139999999999882e-01 2.705339999999999967e-01 1.669069999999999998e-01 2.090789999999999871e-01 2.708729999999999749e-01 1.673060000000000103e-01 1.100000000000000039e-04 1.005000000000000034e-03 -8.099999999999999561e-04 1.129999999999999955e-04 1.119999999999999983e-04 -1.108999999999999960e-03 2.086260000000000059e-01 2.709880000000000067e-01 1.672780000000000100e-01 3.680000000000000003e-04 -9.299999999999999727e-05 5.119999999999999768e-04 2.097130000000000105e-01 2.701799999999999757e-01 1.672379999999999978e-01 5.550000000000000462e-04 -1.949999999999999965e-04 2.970000000000000092e-04 2.088589999999999891e-01 2.701489999999999725e-01 1.673469999999999958e-01 -2.092199999999999893e-01 -2.699139999999999873e-01 -1.683389999999999886e-01 2.090150000000000063e-01 2.713630000000000209e-01 1.670149999999999968e-01 -2.089719999999999911e-01 -2.699969999999999870e-01 -1.681169999999999887e-01 -2.088280000000000136e-01 -2.686580000000000079e-01 -1.676310000000000022e-01 -2.094380000000000130e-01 -2.696649999999999880e-01 -1.677750000000000075e-01 2.410000000000000033e-04 8.440000000000000236e-04 1.160999999999999923e-03 2.082730000000000137e-01 2.708760000000000057e-01 1.675639999999999907e-01 2.089729999999999921e-01 2.696910000000000140e-01 1.678810000000000024e-01 2.579999999999999828e-04 7.739999999999999485e-04 0.000000000000000000e+00 -1.019999999999999992e-04 2.590000000000000071e-04 1.268000000000000030e-03 2.085559999999999914e-01 2.698630000000000195e-01 1.677420000000000022e-01 3.179999999999999776e-04 -1.740000000000000010e-04 4.699999999999999724e-05 2.095609999999999973e-01 2.714790000000000258e-01 1.671690000000000120e-01 7.209999999999999612e-04 -7.100000000000000462e-05 -3.699999999999999947e-04 -2.093500000000000083e-01 -2.702320000000000277e-01 -1.685460000000000014e-01 -2.090760000000000118e-01 -2.703300000000000147e-01 -1.681340000000000057e-01 2.091050000000000131e-01 2.704460000000000197e-01 1.674249999999999905e-01 -2.089360000000000106e-01 -2.700520000000000143e-01 -1.673040000000000083e-01 -2.090140000000000053e-01 -2.694840000000000013e-01 -1.667569999999999886e-01 -2.094580000000000053e-01 -2.702330000000000010e-01 -1.678439999999999932e-01 2.082100000000000062e-01 2.705690000000000039e-01 1.677810000000000135e-01 2.092799999999999938e-01 2.709969999999999879e-01 1.676779999999999937e-01 2.089040000000000064e-01 2.712240000000000206e-01 1.675520000000000065e-01 2.095509999999999873e-01 2.707160000000000122e-01 1.676610000000000045e-01 -2.095720000000000083e-01 -2.703530000000000100e-01 -1.675619999999999887e-01 1.659999999999999963e-04 9.629999999999999888e-04 1.551000000000000078e-03 6.579999999999999478e-04 -8.779999999999999827e-04 1.217999999999999899e-03 9.200000000000000007e-05 5.529999999999999976e-04 1.379999999999999933e-03 -2.091729999999999978e-01 -2.692330000000000001e-01 -1.679930000000000034e-01 2.699999999999999899e-05 5.389999999999999826e-04 1.476000000000000098e-03 -2.087799999999999934e-01 -2.695259999999999878e-01 -1.673709999999999920e-01 4.440000000000000045e-04 -1.268000000000000030e-03 1.340000000000000045e-03 -2.096909999999999885e-01 -2.713499999999999801e-01 -1.681539999999999979e-01 -2.093200000000000061e-01 -2.693699999999999983e-01 -1.682819999999999871e-01 -2.092259999999999953e-01 -2.713470000000000049e-01 -1.684930000000000039e-01 2.088579999999999881e-01 2.696029999999999816e-01 1.684370000000000034e-01 6.070000000000000092e-04 -2.300000000000000070e-04 2.489999999999999809e-04 -1.350000000000000017e-04 -5.990000000000000316e-04 -9.669999999999999776e-04 2.095589999999999953e-01 2.693499999999999783e-01 1.685699999999999976e-01 2.083409999999999984e-01 2.697430000000000105e-01 1.677990000000000037e-01 1.179999999999999951e-04 -1.810000000000000085e-04 -2.579999999999999828e-04 -5.199999999999999680e-05 -3.669999999999999760e-04 8.930000000000000221e-04 2.083730000000000027e-01 2.703400000000000247e-01 1.674229999999999885e-01 -2.090639999999999998e-01 -2.709230000000000249e-01 -1.678959999999999897e-01 -2.300000000000000002e-05 -3.759999999999999779e-04 7.910000000000000364e-04 2.089810000000000001e-01 2.695719999999999783e-01 1.667279999999999873e-01 -2.089940000000000131e-01 -2.704619999999999802e-01 -1.670240000000000058e-01 6.030000000000000204e-04 -2.439999999999999949e-04 2.999999999999999737e-04 -2.099149999999999905e-01 -2.707089999999999774e-01 -1.674239999999999895e-01 -2.087980000000000114e-01 -2.717370000000000063e-01 -1.678449999999999942e-01 2.085899999999999976e-01 2.704869999999999775e-01 1.666199999999999903e-01 1.320000000000000101e-04 -4.629999999999999784e-04 -1.095999999999999969e-03 -9.000000000000000228e-06 -3.359999999999999814e-04 5.419999999999999471e-04 2.083649999999999947e-01 2.689340000000000064e-01 1.670850000000000113e-01 2.097430000000000128e-01 2.691290000000000071e-01 1.665659999999999918e-01 -2.092080000000000051e-01 -2.703729999999999745e-01 -1.684470000000000134e-01 2.088260000000000116e-01 2.705679999999999752e-01 1.669619999999999993e-01 2.093440000000000023e-01 2.693949999999999956e-01 1.671140000000000125e-01 -2.090229999999999866e-01 -2.705739999999999812e-01 -1.674569999999999947e-01 2.094409999999999883e-01 2.692089999999999761e-01 1.673949999999999882e-01 -2.096119999999999928e-01 -2.704739999999999922e-01 -1.679889999999999994e-01 -2.087650000000000061e-01 -2.707169999999999854e-01 -1.678109999999999880e-01 2.087050000000000016e-01 2.697399999999999798e-01 1.673189999999999955e-01 -2.089419999999999888e-01 -2.703699999999999992e-01 -1.682009999999999894e-01 -2.100799999999999890e-01 -2.700540000000000163e-01 -1.678630000000000122e-01 -2.869999999999999830e-04 8.000000000000000383e-04 4.760000000000000234e-04 6.269999999999999532e-04 5.119999999999999768e-04 8.509999999999999769e-04 -2.088669999999999971e-01 -2.696520000000000028e-01 -1.676660000000000095e-01 1.530000000000000056e-04 -7.410000000000000137e-04 9.799999999999999684e-05 -2.091500000000000026e-01 -2.714509999999999978e-01 -1.675780000000000047e-01 1.379999999999999933e-04 1.200000000000000030e-04 1.593000000000000015e-03 2.700000000000000035e-04 1.116000000000000021e-03 -8.339999999999999974e-04 2.085619999999999974e-01 2.699529999999999985e-01 1.669650000000000023e-01 -2.300000000000000002e-05 8.299999999999999815e-05 4.420000000000000101e-04 2.096750000000000003e-01 2.705139999999999767e-01 1.668229999999999991e-01 -2.020000000000000040e-04 1.250000000000000026e-03 -6.369999999999999794e-04 4.220000000000000118e-04 4.400000000000000157e-04 -1.374000000000000004e-03 2.090090000000000003e-01 2.704860000000000042e-01 1.665850000000000108e-01 2.086399999999999921e-01 2.707359999999999767e-01 1.672399999999999998e-01 -2.086949999999999916e-01 -2.689659999999999829e-01 -1.681590000000000029e-01 4.970000000000000459e-04 1.382999999999999898e-03 -1.500000000000000038e-05 2.085039999999999949e-01 2.714019999999999766e-01 1.669539999999999913e-01 -2.096570000000000100e-01 -2.687829999999999941e-01 -1.676050000000000040e-01 -2.089779999999999971e-01 -2.704210000000000225e-01 -1.679630000000000012e-01 8.399999999999999535e-05 1.959999999999999937e-04 -2.919999999999999961e-04 -2.087509999999999921e-01 -2.697590000000000265e-01 -1.678749999999999964e-01 2.096760000000000013e-01 2.706950000000000189e-01 1.674579999999999957e-01 -1.700000000000000122e-04 1.368000000000000075e-03 3.849999999999999798e-04 4.279999999999999950e-04 2.519999999999999996e-04 7.699999999999999597e-04 2.090799999999999881e-01 2.710949999999999749e-01 1.673509999999999998e-01 2.086679999999999924e-01 2.697160000000000113e-01 1.676400000000000112e-01 2.092610000000000026e-01 2.707669999999999799e-01 1.677339999999999942e-01 -2.090809999999999891e-01 -2.697269999999999945e-01 -1.672909999999999953e-01 2.086570000000000091e-01 2.705449999999999799e-01 1.675389999999999935e-01 -2.094419999999999893e-01 -2.694559999999999733e-01 -1.670719999999999983e-01 -2.089529999999999998e-01 -2.701509999999999745e-01 -1.672220000000000095e-01 2.083990000000000009e-01 2.708139999999999992e-01 1.676620000000000055e-01 -2.088299999999999879e-01 -2.703579999999999872e-01 -1.682210000000000094e-01 2.094100000000000128e-01 2.700779999999999847e-01 1.679809999999999914e-01 -2.090440000000000076e-01 -2.697620000000000018e-01 -1.679509999999999892e-01 -2.091059999999999863e-01 -2.695859999999999923e-01 -1.676749999999999907e-01 2.719999999999999979e-04 -7.169999999999999724e-04 1.118000000000000070e-03 -2.840000000000000185e-04 6.059999999999999849e-04 1.621000000000000045e-03 -2.087529999999999941e-01 -2.712740000000000151e-01 -1.683060000000000112e-01 2.290000000000000098e-04 9.150000000000000147e-04 1.311000000000000099e-03 -2.097930000000000073e-01 -2.696120000000000183e-01 -1.676400000000000112e-01 1.600000000000000131e-04 8.429999999999999993e-04 1.170999999999999949e-03 4.899999999999999842e-04 -9.340000000000000429e-04 -1.134999999999999941e-03 2.083659999999999957e-01 2.697820000000000218e-01 1.683449999999999946e-01 2.086339999999999861e-01 2.698400000000000243e-01 1.677269999999999872e-01 -2.039999999999999984e-04 -4.300000000000000165e-05 3.800000000000000209e-04 2.090019999999999933e-01 2.699460000000000193e-01 1.673929999999999862e-01 -6.399999999999999710e-05 -3.989999999999999949e-04 2.339999999999999958e-04 2.094310000000000060e-01 2.702590000000000270e-01 1.678560000000000052e-01 2.229999999999999994e-04 -1.021999999999999905e-03 -9.219999999999999680e-04 6.440000000000000412e-04 -6.239999999999999887e-04 5.249999999999999676e-04 2.088820000000000121e-01 2.703289999999999860e-01 1.674529999999999907e-01 -2.088349999999999929e-01 -2.719440000000000190e-01 -1.679259999999999919e-01 -2.088460000000000039e-01 -2.701899999999999857e-01 -1.667359999999999953e-01 3.499999999999999964e-04 -4.360000000000000269e-04 3.069999999999999812e-04 -2.094499999999999973e-01 -2.717510000000000203e-01 -1.676010000000000000e-01 -2.088240000000000096e-01 -2.706000000000000072e-01 -1.673429999999999918e-01 2.092670000000000086e-01 2.703309999999999880e-01 1.666350000000000053e-01 1.100000000000000039e-04 -2.030000000000000012e-04 -7.739999999999999485e-04 2.086999999999999966e-01 2.705910000000000259e-01 1.667480000000000073e-01 -1.340000000000000045e-04 -8.589999999999999546e-04 -8.189999999999999581e-04 2.095720000000000083e-01 2.691290000000000071e-01 1.673790000000000000e-01 1.610000000000000103e-04 -9.950000000000000077e-04 6.830000000000000134e-04 3.179999999999999776e-04 -3.939999999999999817e-04 2.999999999999999737e-04 2.088929999999999954e-01 2.690069999999999961e-01 1.669859999999999955e-01 2.085579999999999934e-01 2.695480000000000098e-01 1.668449999999999933e-01 -2.092960000000000098e-01 -2.703160000000000007e-01 -1.674019999999999953e-01 -2.088869999999999894e-01 -2.703090000000000215e-01 -1.675429999999999975e-01 -2.088679999999999981e-01 -2.705969999999999764e-01 -1.674339999999999995e-01 2.082980000000000109e-01 2.695779999999999843e-01 1.673409999999999898e-01 -2.096929999999999905e-01 -2.705899999999999972e-01 -1.673890000000000100e-01 -2.089189999999999936e-01 -2.704969999999999875e-01 -1.675899999999999890e-01 2.091099999999999903e-01 2.698280000000000123e-01 1.673739999999999950e-01 2.087509999999999921e-01 2.697579999999999978e-01 1.672690000000000010e-01 2.094739999999999935e-01 2.704619999999999802e-01 1.675139999999999962e-01 2.088740000000000041e-01 2.702339999999999742e-01 1.671819999999999973e-01 -2.094040000000000068e-01 -2.706250000000000044e-01 -1.679019999999999957e-01 -2.094439999999999913e-01 -2.699159999999999893e-01 -1.679350000000000009e-01 -2.093349999999999933e-01 -2.713149999999999729e-01 -1.680089999999999917e-01 2.500000000000000052e-04 -6.870000000000000022e-04 3.809999999999999910e-04 -2.088369999999999949e-01 -2.710110000000000019e-01 -1.674960000000000060e-01 -1.749999999999999982e-04 -7.709999999999999840e-04 4.000000000000000192e-04 1.430000000000000064e-04 7.899999999999999579e-05 5.370000000000000424e-04 -2.087279999999999969e-01 -2.699900000000000078e-01 -1.678099999999999870e-01 6.920000000000000153e-04 -1.610000000000000103e-04 1.128000000000000096e-03 -2.093279999999999863e-01 -2.700759999999999827e-01 -1.677919999999999967e-01 4.769999999999999934e-04 3.299999999999999982e-04 7.690000000000000438e-04