2.426050000000000040e+00 2.828329999999999789e+00 5.090250000000000163e+00 1.853869999999999907e+00 9.647499999999999964e-01 2.389850000000000030e+00 3.492989999999999817e+00 3.488290000000000113e+00 2.389819999999999833e+00 2.302160000000000206e+00 6.011849999999999916e+00 2.389860000000000095e+00 4.065199999999999925e+00 5.351899999999999658e+00 5.090270000000000294e+00 3.616899999999999782e+00 3.048000000000000154e-01 5.090250000000000163e+00 1.235190000000000010e+00 5.351890000000000036e+00 5.090270000000000294e+00 4.683860000000000134e+00 9.647400000000000420e-01 2.389850000000000030e+00 5.132159999999999833e+00 6.011849999999999916e+00 2.389850000000000030e+00 7.868899999999999784e-01 3.047900000000000054e-01 5.090259999999999785e+00 3.009160000000000057e+00 1.394840000000000080e+00 9.899369999999999337e+00 4.648299999999999876e+00 3.918400000000000105e+00 9.899340000000000472e+00 3.457460000000000200e+00 6.441939999999999777e+00 9.899380000000000734e+00 5.839170000000000194e+00 1.394849999999999923e+00 9.899369999999999337e+00 6.287480000000000402e+00 6.441959999999999908e+00 9.899380000000000734e+00 3.581350000000000033e+00 3.258439999999999781e+00 1.259976999999999947e+01 5.220509999999999984e+00 5.782009999999999650e+00 1.259979000000000049e+01 4.772199999999999775e+00 7.348999999999999977e-01 1.259978000000000087e+01 2.390509999999999913e+00 5.782009999999999650e+00 1.259978000000000087e+01 1.942209999999999992e+00 7.348999999999999977e-01 1.259978000000000087e+01 4.736659999999999648e+00 3.688530000000000086e+00 2.010929000000000144e+01 4.164480000000000182e+00 1.824950000000000072e+00 1.740888999999999953e+01 5.803609999999999935e+00 4.348489999999999966e+00 1.740886000000000067e+01 4.612770000000000259e+00 6.872060000000000279e+00 1.740888999999999953e+01 6.375810000000000421e+00 6.212100000000000399e+00 2.010930000000000106e+01 5.927529999999999966e+00 1.164989999999999970e+00 2.010931000000000068e+01 6.994489999999999874e+00 1.824959999999999916e+00 1.740888999999999953e+01 3.545809999999999906e+00 6.212089999999999890e+00 2.010931000000000068e+01 7.442779999999999951e+00 6.872060000000000279e+00 1.740889999999999915e+01 3.097529999999999895e+00 1.165000000000000036e+00 2.010931000000000068e+01 3.941300000000000026e+00 8.535399999999999210e+00 2.389829999999999899e+00 3.322649999999999881e+00 1.292253999999999969e+01 5.090250000000000163e+00 2.750459999999999905e+00 1.105893999999999977e+01 2.389860000000000095e+00 4.513499999999999623e+00 1.039899999999999913e+01 5.090270000000000294e+00 4.389599999999999724e+00 1.358248999999999995e+01 2.389829999999999899e+00 2.874340000000000117e+00 7.875429999999999708e+00 5.090250000000000163e+00 1.683489999999999931e+00 1.039899999999999913e+01 5.090259999999999785e+00 5.580449999999999910e+00 1.105894999999999939e+01 2.389850000000000030e+00 5.096599999999999575e+00 8.965490000000000848e+00 9.899350000000000094e+00 3.905780000000000030e+00 1.148906000000000027e+01 9.899369999999999337e+00 5.544889999999999652e+00 1.401261000000000045e+01 9.899340000000000472e+00 6.735769999999999591e+00 1.148905000000000065e+01 9.899380000000000734e+00 4.477949999999999875e+00 1.335262999999999955e+01 1.259978000000000087e+01 5.668809999999999683e+00 1.082910000000000039e+01 1.259978000000000087e+01 4.029659999999999798e+00 8.305529999999999191e+00 1.259978000000000087e+01 2.838810000000000056e+00 1.082910000000000039e+01 1.259978000000000087e+01 6.251909999999999634e+00 9.395599999999999952e+00 1.740886000000000067e+01 5.633270000000000444e+00 1.378275000000000006e+01 2.010931000000000068e+01 5.061090000000000089e+00 1.191915999999999976e+01 1.740888999999999953e+01 6.824119999999999742e+00 1.125919999999999987e+01 2.010931000000000068e+01 6.700210000000000221e+00 1.444270000000000032e+01 1.740887000000000029e+01 5.184969999999999857e+00 8.735630000000000450e+00 2.010930000000000106e+01 3.994120000000000115e+00 1.125919999999999987e+01 2.010930000000000106e+01 7.891090000000000160e+00 1.191915000000000013e+01 1.740889999999999915e+01 8.086050000000000182e+00 2.828329999999999789e+00 5.090259999999999785e+00 6.323000000000000398e+00 3.488290000000000113e+00 2.389819999999999833e+00 7.513869999999999827e+00 9.647499999999999964e-01 2.389860000000000095e+00 6.895190000000000374e+00 5.351890000000000036e+00 5.090259999999999785e+00 7.962170000000000414e+00 6.011849999999999916e+00 2.389850000000000030e+00 9.153000000000000469e+00 3.488300000000000178e+00 2.389829999999999899e+00 5.256039999999999601e+00 2.828320000000000167e+00 5.090259999999999785e+00 6.446909999999999918e+00 3.047900000000000054e-01 5.090270000000000294e+00 7.478309999999999569e+00 3.918400000000000105e+00 9.899350000000000094e+00 8.669169999999999376e+00 1.394849999999999923e+00 9.899380000000000734e+00 9.117459999999999454e+00 6.441950000000000287e+00 9.899380000000000734e+00 1.030829999999999913e+01 3.918400000000000105e+00 9.899340000000000472e+00 9.241369999999999862e+00 3.258439999999999781e+00 1.259976999999999947e+01 8.050499999999999545e+00 5.782000000000000028e+00 1.259978000000000087e+01 6.411349999999999660e+00 3.258439999999999781e+00 1.259978000000000087e+01 7.602199999999999847e+00 7.348999999999999977e-01 1.259979000000000049e+01 1.039666000000000068e+01 3.688540000000000152e+00 2.010930000000000106e+01 8.633609999999999118e+00 4.348499999999999588e+00 1.740887000000000029e+01 9.824490000000000833e+00 1.824950000000000072e+00 1.740888999999999953e+01 9.205830000000000624e+00 6.212100000000000399e+00 2.010931000000000068e+01 1.027277999999999913e+01 6.872049999999999770e+00 1.740888999999999953e+01 1.146362000000000059e+01 4.348499999999999588e+00 1.740887000000000029e+01 7.566679999999999851e+00 3.688530000000000086e+00 2.010930000000000106e+01 8.757529999999999148e+00 1.165000000000000036e+00 2.010931000000000068e+01 6.771300000000000097e+00 8.535410000000000608e+00 2.389819999999999833e+00 7.343499999999999694e+00 1.039898999999999951e+01 5.090259999999999785e+00 8.982639999999999958e+00 1.292253000000000007e+01 5.090250000000000163e+00 7.219590000000000174e+00 1.358249999999999957e+01 2.389819999999999833e+00 8.410470000000000113e+00 1.105893999999999977e+01 2.389860000000000095e+00 5.704340000000000188e+00 7.875440000000000218e+00 5.090259999999999785e+00 6.152639999999999887e+00 1.292253999999999969e+01 5.090250000000000163e+00 9.601300000000000168e+00 8.535399999999999210e+00 2.389819999999999833e+00 1.004959999999999987e+01 1.358249999999999957e+01 2.389819999999999833e+00 8.534340000000000259e+00 7.875440000000000218e+00 5.090259999999999785e+00 7.926599999999999646e+00 8.965500000000000469e+00 9.899350000000000094e+00 8.374909999999999854e+00 1.401260000000000083e+01 9.899340000000000472e+00 9.565780000000000172e+00 1.148905000000000065e+01 9.899380000000000734e+00 1.075660000000000061e+01 8.965490000000000848e+00 9.899340000000000472e+00 1.120490999999999993e+01 1.401260000000000083e+01 9.899350000000000094e+00 8.498820000000000263e+00 1.082909000000000077e+01 1.259978000000000087e+01 1.013795999999999964e+01 1.335262999999999955e+01 1.259976999999999947e+01 6.859659999999999869e+00 8.305529999999999191e+00 1.259979000000000049e+01 7.307949999999999946e+00 1.335263999999999918e+01 1.259976999999999947e+01 9.689669999999999561e+00 8.305529999999999191e+00 1.259978000000000087e+01 9.081920000000000215e+00 9.395590000000000330e+00 1.740886000000000067e+01 9.654120000000000701e+00 1.125920999999999950e+01 2.010931000000000068e+01 1.129326999999999970e+01 1.378275000000000006e+01 2.010929000000000144e+01 9.530210000000000292e+00 1.444270999999999994e+01 1.740887000000000029e+01 1.072108000000000061e+01 1.191915999999999976e+01 1.740889999999999915e+01 8.014960000000000306e+00 8.735640000000000072e+00 2.010930000000000106e+01 8.463260000000000005e+00 1.378273000000000081e+01 2.010930000000000106e+01 1.191191000000000066e+01 9.395599999999999952e+00 1.740887000000000029e+01 1.236021000000000036e+01 1.444270000000000032e+01 1.740887000000000029e+01 1.084497000000000000e+01 8.735640000000000072e+00 2.010931000000000068e+01 4.003180000000000405e+00 6.943640000000000256e+00 3.740000000000000213e+00 1.173189999999999955e+00 6.943640000000000256e+00 3.740009999999999835e+00 3.086489999999999956e+00 9.342000000000000304e-02 1.288710000000000022e+00 7.248900000000000343e-01 1.896539999999999893e+00 3.739990000000000148e+00 1.895620000000000083e+00 2.616999999999999993e+00 1.288720000000000088e+00 3.534790000000000099e+00 5.140520000000000422e+00 1.288710000000000022e+00 2.364100000000000090e+00 4.420090000000000074e+00 3.740089999999999915e+00 3.554879999999999818e+00 1.896539999999999893e+00 3.739990000000000148e+00 7.048100000000000476e-01 5.140530000000000044e+00 1.288699999999999957e+00 2.565100000000000158e-01 9.342999999999999916e-02 1.288720000000000088e+00 5.158500000000000085e+00 7.373739999999999739e+00 1.124952000000000041e+01 2.328489999999999949e+00 7.373739999999999739e+00 1.124953000000000003e+01 2.384259999999999824e+00 1.176080000000000014e+00 6.191530000000000200e+00 4.023410000000000153e+00 3.699629999999999974e+00 6.191469999999999807e+00 2.832549999999999901e+00 6.223189999999999777e+00 6.191530000000000200e+00 1.880190000000000028e+00 2.326630000000000198e+00 1.124952000000000041e+01 3.050930000000000142e+00 3.047109999999999985e+00 8.798249999999999460e+00 4.690120000000000289e+00 5.570630000000000415e+00 8.798230000000000217e+00 3.519400000000000084e+00 4.850200000000000067e+00 1.124959999999999916e+01 4.710200000000000387e+00 2.326639999999999819e+00 1.124952000000000041e+01 4.241810000000000080e+00 5.235199999999999854e-01 8.798230000000000217e+00 1.860100000000000087e+00 5.570619999999999905e+00 8.798239999999999839e+00 1.411799999999999944e+00 5.235300000000000509e-01 8.798239999999999839e+00 5.214269999999999960e+00 1.176069999999999949e+00 6.191519999999999690e+00 5.662569999999999659e+00 6.223180000000000156e+00 6.191519999999999690e+00 5.397120000000000140e+00 9.536200000000000232e-01 1.630775999999999826e+01 5.845430000000000348e+00 6.000729999999999897e+00 1.630774999999999864e+01 4.206260000000000332e+00 3.477199999999999847e+00 1.630774999999999864e+01 3.539569999999999883e+00 1.606179999999999941e+00 1.370104000000000077e+01 5.178720000000000212e+00 4.129719999999999835e+00 1.370100000000000051e+01 3.987870000000000026e+00 6.653290000000000148e+00 1.370105000000000040e+01 3.015410000000000146e+00 6.000740000000000407e+00 1.630775999999999826e+01 2.567130000000000134e+00 9.536299999999999777e-01 1.630773999999999901e+01 6.369580000000000020e+00 1.606179999999999941e+00 1.370104000000000077e+01 6.817870000000000097e+00 6.653290000000000148e+00 1.370105000000000040e+01 5.143189999999999706e+00 7.083400000000000141e+00 2.121056000000000097e+01 6.313810000000000144e+00 7.803849999999999731e+00 1.875903999999999883e+01 3.483810000000000073e+00 7.803849999999999731e+00 1.875904999999999845e+01 3.035499999999999865e+00 2.756740000000000190e+00 1.875903999999999883e+01 6.334039999999999893e+00 4.559820000000000206e+00 2.121050999999999931e+01 4.674699999999999633e+00 5.280310000000000059e+00 1.875912999999999897e+01 4.694880000000000386e+00 2.036280000000000090e+00 2.121056000000000097e+01 5.865509999999999557e+00 2.756740000000000190e+00 1.875903999999999883e+01 7.973189999999999777e+00 7.083380000000000010e+00 2.121057000000000059e+01 7.524890000000000079e+00 2.036280000000000090e+00 2.121057000000000059e+01 4.451489999999999725e+00 1.199075000000000024e+01 3.740009999999999835e+00 3.260679999999999801e+00 1.451431000000000004e+01 3.740079999999999849e+00 3.983089999999999797e+00 1.018762000000000079e+01 1.288710000000000022e+00 2.792219999999999924e+00 1.271119999999999983e+01 1.288710000000000022e+00 1.621490000000000098e+00 1.199075000000000024e+01 3.740000000000000213e+00 2.343929999999999847e+00 7.664089999999999847e+00 1.288710000000000022e+00 2.812390000000000168e+00 9.467209999999999681e+00 3.740079999999999849e+00 1.153100000000000014e+00 1.018763000000000041e+01 1.288710000000000022e+00 5.606799999999999784e+00 1.242084000000000010e+01 1.124952000000000041e+01 4.416000000000000369e+00 1.494439000000000028e+01 1.124959999999999916e+01 5.138410000000000366e+00 1.061772000000000027e+01 8.798230000000000217e+00 4.471700000000000230e+00 8.746729999999999450e+00 6.191469999999999807e+00 3.947540000000000049e+00 1.314129999999999932e+01 8.798239999999999839e+00 3.280870000000000175e+00 1.127030000000000065e+01 6.191530000000000200e+00 4.920020000000000060e+00 1.379382000000000019e+01 6.191460000000000186e+00 3.499229999999999841e+00 8.094200000000000728e+00 8.798239999999999839e+00 3.967690000000000161e+00 9.897299999999999542e+00 1.124961000000000055e+01 2.776790000000000092e+00 1.242084999999999972e+01 1.124951000000000079e+01 2.308399999999999785e+00 1.061773999999999951e+01 8.798230000000000217e+00 6.110859999999999737e+00 1.127028999999999925e+01 6.191519999999999690e+00 6.293730000000000047e+00 1.104782999999999937e+01 1.630775999999999826e+01 5.102839999999999598e+00 1.357141999999999982e+01 1.630774999999999864e+01 4.654560000000000031e+00 8.524300000000000210e+00 1.630775999999999826e+01 6.075330000000000119e+00 1.422391999999999967e+01 1.370098999999999911e+01 5.627030000000000420e+00 9.176830000000000709e+00 1.370098999999999911e+01 4.436169999999999725e+00 1.170040000000000013e+01 1.370105000000000040e+01 3.463719999999999910e+00 1.104784000000000077e+01 1.630775999999999826e+01 7.266180000000000305e+00 1.170037999999999911e+01 1.370104000000000077e+01 7.230629999999999669e+00 1.465403000000000056e+01 2.121051999999999893e+01 5.591490000000000293e+00 1.213048999999999999e+01 2.121057000000000059e+01 5.571299999999999919e+00 1.537449999999999939e+01 1.875911999999999935e+01 6.762109999999999843e+00 1.285094999999999921e+01 1.875903999999999883e+01 3.932100000000000151e+00 1.285093999999999959e+01 1.875903999999999883e+01 6.782339999999999591e+00 9.606930000000000192e+00 2.121051999999999893e+01 5.123020000000000351e+00 1.032741000000000042e+01 1.875913999999999859e+01 8.421490000000000364e+00 1.213048999999999999e+01 2.121056000000000097e+01 6.833190000000000097e+00 6.943640000000000256e+00 3.740000000000000213e+00 8.024100000000000676e+00 4.420099999999999696e+00 3.740089999999999915e+00 5.916500000000000092e+00 9.342000000000000304e-02 1.288710000000000022e+00 7.555640000000000356e+00 2.617010000000000058e+00 1.288710000000000022e+00 6.384890000000000398e+00 1.896539999999999893e+00 3.739990000000000148e+00 6.364790000000000170e+00 5.140520000000000422e+00 1.288710000000000022e+00 5.194090000000000096e+00 4.420090000000000074e+00 3.740079999999999849e+00 4.725629999999999775e+00 2.617010000000000058e+00 1.288710000000000022e+00 7.988500000000000156e+00 7.373739999999999739e+00 1.124953000000000003e+01 9.179399999999999338e+00 4.850189999999999557e+00 1.124961000000000055e+01 7.071819999999999773e+00 5.235199999999999854e-01 8.798220000000000596e+00 6.853399999999999714e+00 3.699609999999999843e+00 6.191469999999999807e+00 8.044269999999999143e+00 1.176080000000000014e+00 6.191530000000000200e+00 8.710940000000000794e+00 3.047109999999999985e+00 8.798239999999999839e+00 8.492570000000000618e+00 6.223180000000000156e+00 6.191530000000000200e+00 7.520109999999999850e+00 5.570640000000000036e+00 8.798220000000000596e+00 6.349400000000000155e+00 4.850189999999999557e+00 1.124961000000000055e+01 7.540189999999999948e+00 2.326630000000000198e+00 1.124953000000000003e+01 5.880950000000000344e+00 3.047109999999999985e+00 8.798239999999999839e+00 9.683410000000000295e+00 3.699629999999999974e+00 6.191480000000000317e+00 8.227109999999999701e+00 9.536299999999999777e-01 1.630775999999999826e+01 9.866250000000000853e+00 3.477199999999999847e+00 1.630774999999999864e+01 8.675430000000000419e+00 6.000729999999999897e+00 1.630775999999999826e+01 9.647880000000000678e+00 6.653299999999999770e+00 1.370104000000000077e+01 8.008729999999999905e+00 4.129710000000000214e+00 1.370097999999999949e+01 9.199579999999999202e+00 1.606190000000000007e+00 1.370104000000000077e+01 7.036249999999999893e+00 3.477199999999999847e+00 1.630774999999999864e+01 1.083871000000000073e+01 4.129719999999999835e+00 1.370098999999999911e+01 1.080319000000000074e+01 7.083400000000000141e+00 2.121057000000000059e+01 1.035487999999999964e+01 2.036280000000000090e+00 2.121057000000000059e+01 9.143810000000000215e+00 7.803849999999999731e+00 1.875904999999999845e+01 1.033470999999999940e+01 5.280310000000000059e+00 1.875911999999999935e+01 9.164039999999999964e+00 4.559820000000000206e+00 2.121050999999999931e+01 7.504710000000000214e+00 5.280300000000000438e+00 1.875912999999999897e+01 8.695510000000000517e+00 2.756740000000000190e+00 1.875903999999999883e+01 1.199404000000000003e+01 4.559820000000000206e+00 2.121050999999999931e+01 8.452230000000000132e+00 1.271119999999999983e+01 1.288710000000000022e+00 7.281489999999999796e+00 1.199074000000000062e+01 3.740000000000000213e+00 6.090690000000000381e+00 1.451429000000000080e+01 3.740089999999999915e+00 8.920690000000000452e+00 1.451429000000000080e+01 3.740089999999999915e+00 5.642380000000000173e+00 9.467190000000000438e+00 3.740079999999999849e+00 8.003930000000000433e+00 7.664109999999999978e+00 1.288720000000000088e+00 8.472379999999999356e+00 9.467190000000000438e+00 3.740079999999999849e+00 6.813100000000000378e+00 1.018764000000000003e+01 1.288710000000000022e+00 5.622220000000000439e+00 1.271119999999999983e+01 1.288720000000000088e+00 5.173930000000000362e+00 7.664100000000000357e+00 1.288710000000000022e+00 9.607549999999999812e+00 1.314132000000000033e+01 8.798239999999999839e+00 7.301720000000000432e+00 8.746719999999999828e+00 6.191460000000000186e+00 8.436799999999999855e+00 1.242084000000000010e+01 1.124952000000000041e+01 7.750009999999999621e+00 1.379382999999999981e+01 6.191469999999999807e+00 8.940870000000000317e+00 1.127028999999999925e+01 6.191510000000000069e+00 1.007600000000000051e+01 1.494439999999999991e+01 1.124962000000000018e+01 6.797690000000000232e+00 9.897309999999999164e+00 1.124961000000000055e+01 9.159250000000000114e+00 8.094200000000000728e+00 8.798239999999999839e+00 9.627689999999999415e+00 9.897309999999999164e+00 1.124961000000000055e+01 7.968420000000000059e+00 1.061772999999999989e+01 8.798239999999999839e+00 7.245989999999999931e+00 1.494439999999999991e+01 1.124961000000000055e+01 6.777540000000000120e+00 1.314132000000000033e+01 8.798239999999999839e+00 6.329250000000000043e+00 8.094210000000000349e+00 8.798230000000000217e+00 1.013170999999999999e+01 8.746719999999999828e+00 6.191460000000000186e+00 1.058000999999999969e+01 1.379382000000000019e+01 6.191469999999999807e+00 1.076285000000000025e+01 1.357140000000000057e+01 1.630775999999999826e+01 1.031453999999999915e+01 8.524300000000000210e+00 1.630775999999999826e+01 8.457019999999999982e+00 9.176830000000000709e+00 1.370097999999999949e+01 9.123720000000000496e+00 1.104785000000000039e+01 1.630774999999999864e+01 8.905319999999999681e+00 1.422391999999999967e+01 1.370098999999999911e+01 1.009618000000000038e+01 1.170039000000000051e+01 1.370104000000000077e+01 7.932850000000000179e+00 1.357140000000000057e+01 1.630775999999999826e+01 7.484560000000000102e+00 8.524309999999999832e+00 1.630774999999999864e+01 1.128702999999999967e+01 9.176830000000000709e+00 1.370098999999999911e+01 1.173532999999999937e+01 1.422391999999999967e+01 1.370097999999999949e+01 1.123132000000000019e+01 1.537449999999999939e+01 1.875912999999999897e+01 1.125149000000000044e+01 1.213048999999999999e+01 2.121056000000000097e+01 1.006063999999999936e+01 1.465403000000000056e+01 2.121051999999999893e+01 7.953000000000000291e+00 1.032741000000000042e+01 1.875912999999999897e+01 9.612320000000000420e+00 9.606939999999999813e+00 2.121050999999999931e+01 1.078302000000000049e+01 1.032740000000000080e+01 1.875911999999999935e+01 8.401300000000000878e+00 1.537449999999999939e+01 1.875912999999999897e+01 9.592100000000000293e+00 1.285094999999999921e+01 1.875903999999999883e+01 1.289062999999999981e+01 1.465404000000000018e+01 2.121051999999999893e+01 1.244233999999999973e+01 9.606939999999999813e+00 2.121051999999999893e+01