-2.720902392869999858e+03
-2.720903401449999819e+03
-2.720829852020000089e+03
-2.720683520290000160e+03
-2.720467378249999911e+03
-2.720185304839999844e+03
-2.719842047510000157e+03
-2.719443207490000077e+03
-2.718995021780000116e+03
-2.718504338300000200e+03
