9.452699999999999991e-02 -4.599800000000000000e-01 -7.492720000000000491e-01 -9.605299999999999949e-02 4.598619999999999930e-01 7.511959999999999749e-01 -9.641199999999999770e-02 4.605159999999999809e-01 7.517540000000000333e-01 -9.597799999999999387e-02 4.604530000000000012e-01 7.513220000000000454e-01 9.464999999999999802e-02 -4.597229999999999928e-01 -7.500830000000000553e-01 9.450600000000000667e-02 -4.600409999999999777e-01 -7.496380000000000265e-01 9.464999999999999802e-02 -4.596049999999999858e-01 -7.500480000000000480e-01 -9.611799999999999511e-02 4.600270000000000192e-01 7.509810000000000096e-01 -9.622300000000000297e-02 4.605350000000000277e-01 7.515650000000000386e-01 9.467299999999999327e-02 -4.600239999999999885e-01 -7.498420000000000085e-01 -9.585899999999999976e-02 4.600879999999999970e-01 7.512760000000000549e-01 -9.629000000000000059e-02 4.597149999999999848e-01 7.515969999999999596e-01 -9.590799999999999326e-02 4.598760000000000070e-01 7.509580000000000144e-01 -9.586600000000000676e-02 4.599650000000000127e-01 7.511069999999999691e-01 -9.607100000000000362e-02 4.597229999999999928e-01 7.510360000000000369e-01 9.491499999999999937e-02 -4.606620000000000159e-01 -7.497089999999999588e-01 9.447200000000000042e-02 -4.602280000000000260e-01 -7.497169999999999668e-01 9.462099999999999678e-02 -4.602169999999999872e-01 -7.494039999999999591e-01 9.462800000000000378e-02 -4.602580000000000005e-01 -7.497000000000000330e-01 9.459800000000000153e-02 -4.602740000000000165e-01 -7.496190000000000353e-01 9.517200000000000659e-02 -4.602140000000000120e-01 -7.502459999999999685e-01 -9.589100000000000401e-02 4.597359999999999780e-01 7.508789999999999631e-01 -9.659399999999999931e-02 4.601529999999999787e-01 7.524159999999999737e-01 -9.593799999999999550e-02 4.598300000000000165e-01 7.517319999999999558e-01 9.471200000000000452e-02 -4.598889999999999922e-01 -7.499080000000000190e-01 9.466700000000000115e-02 -4.599239999999999995e-01 -7.500099999999999545e-01 -9.626099999999999934e-02 4.594610000000000083e-01 7.512210000000000276e-01 9.472300000000000164e-02 -4.595319999999999960e-01 -7.499820000000000375e-01 -9.587099999999999789e-02 4.601500000000000035e-01 7.516450000000000076e-01 9.446799999999999642e-02 -4.600830000000000197e-01 -7.499360000000000470e-01 -9.651999999999999469e-02 4.600279999999999925e-01 7.520219999999999683e-01 9.465999999999999415e-02 -4.601160000000000250e-01 -7.503379999999999495e-01 -9.619400000000000173e-02 4.601040000000000130e-01 7.511600000000000499e-01 9.447700000000000542e-02 -4.601549999999999807e-01 -7.508040000000000269e-01 -9.678299999999999403e-02 4.600540000000000185e-01 7.516699999999999493e-01 9.505299999999999860e-02 -4.604329999999999812e-01 -7.507669999999999622e-01 9.483600000000000363e-02 -4.601839999999999820e-01 -7.507190000000000252e-01 -9.601500000000000312e-02 4.596859999999999835e-01 7.511910000000000531e-01 -9.643899999999999695e-02 4.602600000000000025e-01 7.520510000000000250e-01 -9.621399999999999397e-02 4.597859999999999725e-01 7.517740000000000533e-01 -9.622999999999999610e-02 4.602519999999999945e-01 7.525389999999999580e-01 -9.596999999999999975e-02 4.600429999999999797e-01 7.514939999999999953e-01 9.520699999999999996e-02 -4.600339999999999985e-01 -7.499240000000000350e-01 9.435300000000000631e-02 -4.594719999999999915e-01 -7.492370000000000418e-01 9.491600000000000037e-02 -4.600980000000000070e-01 -7.500419999999999865e-01 9.455700000000000216e-02 -4.597069999999999768e-01 -7.495929999999999538e-01 -9.630900000000000571e-02 4.604249999999999732e-01 7.521839999999999637e-01 9.471899999999999764e-02 -4.602350000000000052e-01 -7.496819999999999595e-01 -9.583800000000000652e-02 4.600690000000000057e-01 7.508110000000000062e-01 9.444199999999999817e-02 -4.597890000000000033e-01 -7.498019999999999685e-01 -9.623800000000000410e-02 4.601939999999999920e-01 7.513159999999999838e-01 9.482300000000000451e-02 -4.598590000000000177e-01 -7.500409999999999577e-01 9.442200000000000593e-02 -4.599309999999999787e-01 -7.495600000000000041e-01 -9.611899999999999611e-02 4.602870000000000017e-01 7.507850000000000357e-01 9.487600000000000200e-02 -4.600790000000000157e-01 -7.498709999999999543e-01 -9.678799999999999903e-02 4.605620000000000269e-01 7.520179999999999643e-01 -9.617499999999999660e-02 4.599079999999999835e-01 7.509839999999999849e-01 9.492799999999999849e-02 -4.596600000000000130e-01 -7.501489999999999547e-01 -9.613199999999999523e-02 4.604050000000000087e-01 7.515589999999999771e-01 -9.650699999999999557e-02 4.606219999999999759e-01 7.518930000000000335e-01 9.494800000000000462e-02 -4.601290000000000102e-01 -7.499510000000000343e-01 9.458700000000000441e-02 -4.600239999999999885e-01 -7.499320000000000430e-01 -9.664599999999999580e-02 4.599650000000000127e-01 7.515929999999999556e-01 -9.596899999999999875e-02 4.599900000000000100e-01 7.513140000000000374e-01 -9.584700000000000164e-02 4.598860000000000170e-01 7.511710000000000331e-01 -9.651899999999999369e-02 4.598809999999999842e-01 7.518740000000000423e-01 9.491800000000000237e-02 -4.607060000000000044e-01 -7.498190000000000133e-01 9.484700000000000075e-02 -4.601310000000000122e-01 -7.496310000000000473e-01 9.502800000000000136e-02 -4.607149999999999856e-01 -7.499970000000000248e-01 9.482999999999999763e-02 -4.604619999999999824e-01 -7.496990000000000043e-01 9.515099999999999947e-02 -4.603880000000000194e-01 -7.503339999999999455e-01 -9.619600000000000373e-02 4.598749999999999782e-01 7.520350000000000090e-01 -9.607699999999999574e-02 4.596439999999999970e-01 7.509439999999999449e-01 9.443999999999999617e-02 -4.598180000000000045e-01 -7.500259999999999705e-01 -9.606599999999999862e-02 4.602200000000000180e-01 7.518420000000000103e-01 -9.640799999999999370e-02 4.601520000000000055e-01 7.518669999999999520e-01 9.483999999999999375e-02 -4.601500000000000035e-01 -7.500229999999999952e-01 9.440800000000000580e-02 -4.601509999999999767e-01 -7.499379999999999935e-01 -9.672300000000000342e-02 4.601560000000000095e-01 7.524650000000000505e-01 9.456499999999999628e-02 -4.600759999999999850e-01 -7.507449999999999957e-01 9.489699999999999525e-02 -4.601870000000000127e-01 -7.504830000000000112e-01 -9.631499999999999784e-02 4.596649999999999903e-01 7.516990000000000061e-01 -9.616099999999999648e-02 4.600009999999999932e-01 7.510999999999999899e-01 9.503599999999999548e-02 -4.605409999999999782e-01 -7.510310000000000041e-01 9.510200000000000597e-02 -4.604210000000000247e-01 -7.505690000000000417e-01 -9.665999999999999592e-02 4.601970000000000227e-01 7.523790000000000200e-01 -9.654699999999999394e-02 4.597339999999999760e-01 7.517249999999999766e-01 9.520299999999999596e-02 -4.607260000000000244e-01 -7.509890000000000176e-01 -9.639499999999999458e-02 4.603240000000000109e-01 7.520459999999999923e-01 -9.672100000000000142e-02 4.606919999999999904e-01 7.527840000000000087e-01 -9.618300000000000460e-02 4.601399999999999935e-01 7.518099999999999783e-01 -9.671399999999999442e-02 4.606060000000000154e-01 7.523950000000000360e-01 -9.654400000000000481e-02 4.607870000000000021e-01 7.525169999999999915e-01 9.438599999999999768e-02 -4.594260000000000010e-01 -7.493680000000000341e-01 9.462099999999999678e-02 -4.600890000000000257e-01 -7.495140000000000136e-01 9.492000000000000437e-02 -4.598690000000000278e-01 -7.499510000000000343e-01 9.509399999999999797e-02 -4.603550000000000142e-01 -7.495560000000000000e-01 9.483999999999999375e-02 -4.599590000000000067e-01 -7.499169999999999447e-01 -9.670099999999999529e-02 4.608140000000000014e-01 7.522860000000000102e-01 9.494500000000000162e-02 -4.602240000000000220e-01 -7.498740000000000405e-01 9.477900000000000214e-02 -4.603650000000000242e-01 -7.495089999999999808e-01 -9.659600000000000131e-02 4.601569999999999827e-01 7.513959999999999528e-01 -9.620099999999999485e-02 4.598700000000000010e-01 7.511360000000000259e-01 9.511200000000000210e-02 -4.603140000000000009e-01 -7.500529999999999697e-01 9.490099999999999925e-02 -4.598889999999999922e-01 -7.499710000000000543e-01 -9.635199999999999321e-02 4.604750000000000232e-01 7.518860000000000543e-01 -9.639999999999999958e-02 4.604190000000000227e-01 7.514779999999999793e-01 9.475200000000000289e-02 -4.599520000000000275e-01 -7.500240000000000240e-01 7.100000000000000191e-04 1.279999999999999942e-04 9.089999999999999773e-04 4.350000000000000026e-04 8.000000000000000654e-05 9.770000000000000039e-04 1.977152999999999938e+00 -2.545359999999999845e-01 -1.498057999999999890e+00 3.390000000000000001e-04 -2.300000000000000070e-04 1.899000000000000080e-03 1.977813000000000043e+00 -2.544460000000000055e-01 -1.498575999999999908e+00 1.977125999999999939e+00 -2.528859999999999997e-01 -1.497433000000000014e+00 4.070000000000000267e-04 1.337000000000000081e-03 2.400000000000000061e-05 8.159999999999999936e-04 -4.879999999999999898e-04 1.507000000000000093e-03 1.976955999999999936e+00 -2.529129999999999989e-01 -1.497241999999999962e+00 1.976720000000000033e+00 -2.547119999999999940e-01 -1.497991999999999990e+00 1.299999999999999886e-04 -5.450000000000000200e-04 9.060000000000000128e-04 6.899999999999999667e-04 -7.969999999999999654e-04 5.649999999999999641e-04 -1.975907000000000080e+00 2.552849999999999842e-01 1.494523000000000046e+00 -1.976590000000000069e+00 2.552409999999999957e-01 1.496520000000000072e+00 -1.976158999999999999e+00 2.544839999999999880e-01 1.494399000000000033e+00 4.690000000000000158e-04 -9.079999999999999530e-04 1.196999999999999930e-03 1.977627999999999941e+00 -2.547760000000000025e-01 -1.497878999999999960e+00 1.976525000000000087e+00 -2.544040000000000190e-01 -1.497371000000000008e+00 3.409999999999999945e-04 -6.599999999999999964e-04 -9.009999999999999997e-04 3.680000000000000003e-04 -1.069000000000000072e-03 1.018000000000000025e-03 1.976626999999999912e+00 -2.528170000000000139e-01 -1.496310000000000029e+00 1.976955999999999936e+00 -2.542809999999999793e-01 -1.497752999999999890e+00 1.976663000000000059e+00 -2.531169999999999809e-01 -1.496308999999999889e+00 -1.976299000000000028e+00 2.554350000000000231e-01 1.494879999999999987e+00 -1.976418000000000008e+00 2.545979999999999910e-01 1.494412999999999991e+00 1.977186000000000110e+00 -2.550830000000000042e-01 -1.497551000000000077e+00 1.976622000000000101e+00 -2.537300000000000111e-01 -1.496444000000000107e+00 1.977279999999999927e+00 -2.560629999999999851e-01 -1.497587000000000002e+00 -1.976442999999999950e+00 2.535370000000000124e-01 1.495090999999999948e+00 -1.977017999999999942e+00 2.535629999999999828e-01 1.495505000000000084e+00 -1.976391000000000009e+00 2.543429999999999858e-01 1.494512000000000063e+00 1.977176999999999962e+00 -2.539750000000000063e-01 -1.496709000000000067e+00 1.976885000000000003e+00 -2.550330000000000097e-01 -1.497370000000000090e+00 -1.976881000000000110e+00 2.534250000000000114e-01 1.495370000000000088e+00 -1.976112000000000091e+00 2.543509999999999938e-01 1.494466000000000072e+00 -1.976318000000000019e+00 2.551619999999999999e-01 1.495006999999999975e+00 4.760000000000000234e-04 1.090000000000000067e-04 2.527999999999999865e-03 3.110000000000000243e-04 7.700000000000000139e-05 2.556000000000000112e-03 4.840000000000000010e-04 -1.284999999999999901e-03 1.438999999999999958e-03 -1.976466999999999974e+00 2.549150000000000027e-01 1.495511000000000035e+00 8.189999999999999581e-04 -3.260000000000000094e-04 4.060000000000000024e-04 -1.976067999999999936e+00 2.539790000000000103e-01 1.494377000000000066e+00 3.240000000000000150e-04 -1.294000000000000011e-03 1.541999999999999968e-03 -1.976293000000000077e+00 2.554560000000000164e-01 1.494709000000000065e+00 -1.976236000000000104e+00 2.540100000000000136e-01 1.494180999999999981e+00 6.740000000000000114e-04 -1.907999999999999974e-03 2.280000000000000126e-04 8.030000000000000028e-04 -1.105000000000000079e-03 -5.060000000000000478e-04 1.977044000000000024e+00 -2.542610000000000148e-01 -1.497919000000000000e+00 1.977351000000000081e+00 -2.555879999999999819e-01 -1.498749000000000109e+00 6.980000000000000527e-04 -1.843999999999999936e-03 1.289999999999999914e-04 1.977538999999999936e+00 -2.542479999999999740e-01 -1.497969000000000106e+00 6.660000000000000338e-04 -9.940000000000000918e-04 -1.103000000000000031e-03 1.976847999999999939e+00 -2.541559999999999930e-01 -1.498164000000000051e+00 3.440000000000000132e-04 -1.050000000000000044e-04 2.354999999999999889e-03 4.139999999999999800e-04 1.859999999999999945e-04 5.450000000000000200e-04 1.976785000000000014e+00 -2.544330000000000203e-01 -1.496363000000000110e+00 -1.976410000000000000e+00 2.538480000000000181e-01 1.494345999999999952e+00 1.977225000000000010e+00 -2.544109999999999983e-01 -1.497069999999999901e+00 -1.976298000000000110e+00 2.538719999999999866e-01 1.493508000000000058e+00 -1.976652999999999993e+00 2.553230000000000222e-01 1.495373000000000063e+00 1.977289000000000074e+00 -2.557860000000000134e-01 -1.497892000000000001e+00 5.749999999999999903e-04 8.100000000000000375e-05 -2.539999999999999940e-04 6.199999999999999999e-04 -6.149999999999999868e-04 2.247999999999999998e-03 1.977260000000000018e+00 -2.547800000000000065e-01 -1.496688000000000018e+00 -1.975991000000000053e+00 2.538819999999999966e-01 1.493559999999999999e+00 1.977089000000000096e+00 -2.522329999999999850e-01 -1.496828000000000047e+00 1.977988999999999997e+00 -2.548779999999999935e-01 -1.498137999999999970e+00 1.977038000000000073e+00 -2.530729999999999924e-01 -1.496938000000000102e+00 -1.976874999999999938e+00 2.547130000000000227e-01 1.497109000000000023e+00 -1.976358000000000059e+00 2.555870000000000086e-01 1.496337999999999946e+00 -1.975886000000000031e+00 2.551109999999999767e-01 1.495797000000000043e+00 1.977147999999999906e+00 -2.529370000000000229e-01 -1.496726999999999919e+00 -1.976347999999999994e+00 2.554649999999999976e-01 1.496094000000000035e+00 -1.976569000000000020e+00 2.540290000000000048e-01 1.495678000000000063e+00 -1.976529999999999898e+00 2.543099999999999805e-01 1.494957000000000091e+00 7.089999999999999948e-04 -9.380000000000000317e-04 -7.140000000000000079e-04 2.310000000000000042e-04 -8.750000000000000182e-04 1.031000000000000015e-03 4.780000000000000178e-04 -7.640000000000000306e-04 1.333999999999999899e-03 -1.976440999999999892e+00 2.548159999999999870e-01 1.495967999999999964e+00 5.810000000000000277e-04 6.999999999999999387e-05 1.879999999999999890e-04 -1.976123000000000074e+00 2.539480000000000071e-01 1.495182000000000011e+00 4.530000000000000064e-04 2.410000000000000033e-04 9.020000000000000240e-04 5.389999999999999826e-04 1.082999999999999978e-03 -1.200000000000000030e-05 1.977092000000000072e+00 -2.544239999999999835e-01 -1.498021000000000047e+00 1.977303999999999951e+00 -2.546849999999999947e-01 -1.498315000000000063e+00 5.330000000000000536e-04 -4.820000000000000066e-04 1.624000000000000010e-03 1.977136000000000005e+00 -2.529680000000000262e-01 -1.497454000000000063e+00 5.150000000000000498e-04 1.332999999999999984e-03 -9.299999999999999727e-05 1.977559000000000067e+00 -2.546669999999999767e-01 -1.498440999999999912e+00 4.369999999999999970e-04 -6.639999999999999852e-04 8.149999999999999693e-04 4.539999999999999765e-04 -4.910000000000000085e-04 -1.170999999999999949e-03 1.976239999999999997e+00 -2.528619999999999757e-01 -1.495956000000000063e+00 -1.976264999999999938e+00 2.554469999999999796e-01 1.496283999999999947e+00 -1.975921000000000038e+00 2.553799999999999959e-01 1.494653999999999927e+00 1.977327000000000057e+00 -2.546300000000000230e-01 -1.497725999999999891e+00 -1.976267999999999914e+00 2.546129999999999782e-01 1.494359999999999911e+00 1.976733999999999991e+00 -2.548039999999999750e-01 -1.497373000000000065e+00 4.310000000000000137e-04 -5.439999999999999957e-04 -1.299000000000000024e-03 4.029999999999999837e-04 -8.570000000000000144e-04 8.859999999999999603e-04 1.977138999999999980e+00 -2.546050000000000257e-01 -1.497579999999999911e+00 -1.975910999999999973e+00 2.550899999999999834e-01 1.496172000000000057e+00 1.976947999999999928e+00 -2.552789999999999782e-01 -1.497640000000000082e+00 1.977411999999999948e+00 -2.560049999999999826e-01 -1.497659999999999991e+00 1.976834999999999898e+00 -2.536399999999999766e-01 -1.496629999999999905e+00 -1.976450000000000040e+00 2.542329999999999868e-01 1.494702999999999893e+00 -1.976780999999999899e+00 2.537400000000000211e-01 1.495606999999999909e+00 -1.976412999999999975e+00 2.534549999999999859e-01 1.494977999999999918e+00 1.977322000000000024e+00 -2.561740000000000128e-01 -1.497654000000000041e+00 -1.976591999999999905e+00 2.535279999999999756e-01 1.495497999999999994e+00 -1.976243999999999890e+00 2.553610000000000047e-01 1.494815000000000005e+00 -1.976280999999999954e+00 2.540510000000000268e-01 1.494315999999999978e+00 1.830000000000000029e-04 2.820000000000000241e-04 2.565000000000000006e-03 4.150000000000000043e-04 -2.010000000000000068e-04 9.579999999999999757e-04 -1.976871000000000045e+00 2.549270000000000147e-01 1.495835000000000026e+00 2.869999999999999830e-04 -1.099999999999999971e-05 9.640000000000000131e-04 3.029999999999999924e-04 -1.448000000000000068e-03 1.623000000000000094e-03 -1.976609999999999978e+00 2.549469999999999792e-01 1.495646000000000031e+00 1.977554000000000034e+00 -2.556930000000000036e-01 -1.498666000000000054e+00 7.230000000000000098e-04 -1.799999999999999951e-03 2.500000000000000052e-04 5.739999999999999660e-04 -5.959999999999999586e-04 -6.310000000000000504e-04 6.440000000000000412e-04 -6.790000000000000245e-04 -6.340000000000000149e-04 7.690000000000000438e-04 -8.499999999999999526e-04 -1.262000000000000101e-03 1.977662999999999949e+00 -2.543070000000000053e-01 -1.498202999999999951e+00 8.260000000000000198e-04 -7.039999999999999817e-04 -1.415999999999999941e-03 1.977200000000000069e+00 -2.542639999999999900e-01 -1.498089000000000004e+00 1.977503000000000011e+00 -2.556379999999999764e-01 -1.498807000000000000e+00 1.977400000000000047e+00 -2.542570000000000108e-01 -1.497859000000000052e+00 1.977106000000000030e+00 -2.546689999999999787e-01 -1.497082000000000024e+00 -1.976464999999999916e+00 2.541399999999999770e-01 1.494539999999999980e+00 3.310000000000000225e-04 -4.899999999999999842e-05 2.459999999999999947e-03 -1.976350000000000051e+00 2.550279999999999769e-01 1.495028000000000024e+00 -1.976226000000000038e+00 2.539020000000000166e-01 1.493665000000000020e+00 5.689999999999999529e-04 9.000000000000000228e-06 1.979999999999999881e-04 7.619999999999999820e-04 -1.440000000000000036e-04 -5.700000000000000314e-05 1.977023999999999893e+00 -2.556189999999999851e-01 -1.497749999999999915e+00 9.510000000000000224e-04 -2.950000000000000148e-04 -2.059999999999999928e-04 1.976696999999999926e+00 -2.545689999999999897e-01 -1.496377999999999986e+00 6.430000000000000169e-04 7.700000000000000139e-05 5.599999999999999916e-05 1.977033000000000040e+00 -2.545999999999999930e-01 -1.496796000000000015e+00 1.976763000000000048e+00 -2.555879999999999819e-01 -1.497544999999999904e+00 -1.976156000000000024e+00 2.540200000000000236e-01 1.494474000000000080e+00 -1.976507000000000014e+00 2.550729999999999942e-01 1.495061999999999891e+00 1.977057000000000064e+00 -2.542780000000000040e-01 -1.498234999999999983e+00 1.977454000000000045e+00 -2.531950000000000034e-01 -1.497047999999999934e+00 -1.976585999999999954e+00 2.555040000000000089e-01 1.496604000000000045e+00 1.976807999999999899e+00 -2.528349999999999764e-01 -1.496782999999999975e+00 -1.976996999999999893e+00 2.545709999999999917e-01 1.497074999999999934e+00 -1.976587000000000094e+00 2.554319999999999924e-01 1.496080999999999994e+00 1.977471999999999897e+00 -2.545000000000000040e-01 -1.498328000000000104e+00 1.977173000000000069e+00 -2.532519999999999771e-01 -1.496798000000000073e+00 -1.976623999999999937e+00 2.554089999999999971e-01 1.496278999999999915e+00 -1.976895999999999987e+00 2.549399999999999999e-01 1.497055999999999942e+00 1.600000000000000131e-04 -6.719999999999999628e-04 -7.669999999999999951e-04 -1.976315999999999962e+00 2.540979999999999905e-01 1.495160000000000045e+00 -1.976320000000000077e+00 2.537510000000000043e-01 1.495524999999999993e+00 8.499999999999999526e-04 -1.420000000000000092e-04 6.200000000000000270e-05 -1.976056000000000035e+00 2.550490000000000257e-01 1.495835000000000026e+00 -3.899999999999999929e-05 3.730000000000000134e-04 8.599999999999999789e-04 6.269999999999999532e-04 -7.929999999999999766e-04 -1.208000000000000089e-03 5.839999999999999922e-04 -9.420000000000000205e-04 1.026999999999999918e-03 -1.976472000000000007e+00 2.535729999999999928e-01 1.495700999999999947e+00 -1.976563999999999988e+00 2.550479999999999969e-01 1.495962000000000014e+00