2.893870000000000164e+00 2.992449999999999832e+00 3.936020000000000074e+00 7.784799999999999498e-01 3.677039999999999864e+00 1.868179999999999952e+00 2.221760000000000179e+00 1.050179999999999891e+00 1.868219999999999992e+00 4.131639999999999979e+00 3.677029999999999799e+00 1.868179999999999952e+00 2.235240000000000116e+00 4.219380000000000130e+00 7.695269999999999833e+00 3.678510000000000169e+00 1.592519999999999936e+00 7.695319999999999716e+00 5.588420000000000165e+00 4.219359999999999999e+00 7.695280000000000342e+00 4.350640000000000285e+00 3.534780000000000033e+00 9.763090000000000046e+00 5.807400000000000340e+00 4.077130000000000365e+00 1.559018999999999977e+01 3.692019999999999857e+00 4.761700000000000266e+00 1.352234999999999943e+01 5.135290000000000354e+00 2.134840000000000071e+00 1.352239999999999931e+01 7.045180000000000220e+00 4.761709999999999887e+00 1.352237000000000045e+01 1.450599999999999890e+00 5.619329999999999714e+00 3.936010000000000009e+00 3.360520000000000174e+00 8.246209999999999596e+00 3.936020000000000074e+00 2.688400000000000123e+00 6.303930000000000256e+00 1.868219999999999992e+00 4.803770000000000095e+00 5.619340000000000224e+00 3.936020000000000074e+00 4.145170000000000243e+00 6.846260000000000012e+00 7.695299999999999585e+00 2.907379999999999853e+00 6.161660000000000359e+00 9.763109999999999289e+00 4.817289999999999850e+00 8.788550000000000750e+00 9.763099999999999667e+00 6.260539999999999772e+00 6.161669999999999980e+00 9.763099999999999667e+00 4.364150000000000418e+00 6.703999999999999737e+00 1.559019999999999939e+01 6.274049999999999905e+00 9.330870000000000886e+00 1.559018999999999977e+01 5.601950000000000429e+00 7.388600000000000279e+00 1.352239999999999931e+01 7.717310000000000336e+00 6.703999999999999737e+00 1.559019999999999939e+01 1.245139999999999914e+00 8.930790000000000006e+00 1.868190000000000017e+00 4.598309999999999675e+00 8.930790000000000006e+00 1.868179999999999952e+00 1.917259999999999964e+00 1.087307999999999986e+01 3.936030000000000140e+00 3.155069999999999819e+00 1.155768999999999913e+01 1.868230000000000057e+00 5.270430000000000170e+00 1.087307999999999986e+01 3.936020000000000074e+00 2.701909999999999812e+00 9.473129999999999384e+00 7.695280000000000342e+00 6.055080000000000240e+00 9.473129999999999384e+00 7.695269999999999833e+00 4.611819999999999808e+00 1.210003000000000029e+01 7.695319999999999716e+00 3.374019999999999797e+00 1.141543000000000063e+01 9.763109999999999289e+00 6.727190000000000225e+00 1.141541999999999923e+01 9.763109999999999289e+00 4.158680000000000376e+00 1.001544999999999952e+01 1.352237000000000045e+01 7.511849999999999916e+00 1.001545999999999914e+01 1.352237000000000045e+01 4.830809999999999604e+00 1.195776000000000039e+01 1.559019999999999939e+01 6.068609999999999616e+00 1.264236000000000004e+01 1.352238999999999969e+01 8.183960000000000790e+00 1.195775000000000077e+01 1.559018999999999977e+01 2.383919999999999817e+00 1.612685000000000102e+01 3.936020000000000074e+00 5.737079999999999735e+00 1.612683000000000177e+01 3.936010000000000009e+00 3.827160000000000117e+00 1.349995999999999974e+01 3.936020000000000074e+00 1.711789999999999923e+00 1.418454999999999977e+01 1.868179999999999952e+00 5.064960000000000129e+00 1.418454999999999977e+01 1.868190000000000017e+00 3.168559999999999821e+00 1.472687999999999953e+01 7.695269999999999833e+00 6.521720000000000184e+00 1.472687999999999953e+01 7.695269999999999833e+00 3.840679999999999872e+00 1.666918000000000077e+01 9.763109999999999289e+00 7.193850000000000300e+00 1.666917000000000115e+01 9.763099999999999667e+00 5.283940000000000303e+00 1.404228999999999949e+01 9.763099999999999667e+00 5.297450000000000436e+00 1.721150000000000091e+01 1.559019999999999939e+01 8.650619999999999976e+00 1.721150000000000091e+01 1.559019999999999939e+01 6.740719999999999601e+00 1.458460999999999963e+01 1.559019999999999939e+01 4.625320000000000320e+00 1.526920999999999928e+01 1.352236000000000082e+01 7.978500000000000369e+00 1.526920999999999928e+01 1.352237000000000045e+01 6.247029999999999639e+00 2.992440000000000211e+00 3.936010000000000009e+00 5.574919999999999654e+00 1.050179999999999891e+00 1.868219999999999992e+00 9.600199999999999179e+00 2.992459999999999898e+00 3.936020000000000074e+00 7.484820000000000029e+00 3.677039999999999864e+00 1.868190000000000017e+00 8.928079999999999572e+00 1.050170000000000048e+00 1.868209999999999926e+00 7.031699999999999839e+00 1.592519999999999936e+00 7.695299999999999585e+00 8.941570000000000462e+00 4.219380000000000130e+00 7.695280000000000342e+00 1.038485000000000014e+01 1.592510000000000092e+00 7.695299999999999585e+00 7.703809999999999825e+00 3.534790000000000099e+00 9.763099999999999667e+00 1.105695000000000050e+01 3.534790000000000099e+00 9.763109999999999289e+00 9.160569999999999879e+00 4.077110000000000234e+00 1.559019999999999939e+01 8.488469999999999516e+00 2.134840000000000071e+00 1.352238999999999969e+01 1.251374000000000031e+01 4.077119999999999855e+00 1.559018999999999977e+01 1.039835000000000065e+01 4.761700000000000266e+00 1.352236000000000082e+01 1.184163000000000032e+01 2.134850000000000136e+00 1.352239999999999931e+01 6.713680000000000092e+00 8.246199999999999974e+00 3.936020000000000074e+00 6.041559999999999597e+00 6.303930000000000256e+00 1.868219999999999992e+00 8.156940000000000524e+00 5.619340000000000224e+00 3.936020000000000074e+00 1.006683999999999912e+01 8.246209999999999596e+00 3.936020000000000074e+00 9.394740000000000535e+00 6.303939999999999877e+00 1.868219999999999992e+00 7.498339999999999783e+00 6.846269999999999634e+00 7.695319999999999716e+00 1.085150999999999932e+01 6.846260000000000012e+00 7.695319999999999716e+00 8.170450000000000657e+00 8.788529999999999731e+00 9.763109999999999289e+00 9.613709999999999312e+00 6.161660000000000359e+00 9.763109999999999289e+00 1.152363000000000071e+01 8.788539999999999353e+00 9.763109999999999289e+00 9.627219999999999445e+00 9.330870000000000886e+00 1.559019999999999939e+01 8.955109999999999459e+00 7.388609999999999900e+00 1.352239999999999931e+01 1.107047000000000025e+01 6.703999999999999737e+00 1.559018999999999977e+01 1.298039999999999949e+01 9.330870000000000886e+00 1.559019999999999939e+01 1.230827999999999989e+01 7.388600000000000279e+00 1.352239999999999931e+01 7.951450000000000351e+00 8.930790000000000006e+00 1.868190000000000017e+00 6.508230000000000182e+00 1.155768999999999913e+01 1.868230000000000057e+00 8.623599999999999710e+00 1.087308999999999948e+01 3.936030000000000140e+00 9.861399999999999721e+00 1.155767999999999951e+01 1.868219999999999992e+00 9.408239999999999270e+00 9.473119999999999763e+00 7.695269999999999833e+00 7.964990000000000236e+00 1.210002000000000066e+01 7.695310000000000095e+00 1.131817000000000029e+01 1.210000999999999927e+01 7.695310000000000095e+00 1.008036000000000065e+01 1.141540999999999961e+01 9.763109999999999289e+00 1.086501999999999946e+01 1.001547000000000054e+01 1.352236000000000082e+01 9.421760000000000801e+00 1.264235000000000042e+01 1.352238999999999969e+01 1.153714000000000084e+01 1.195775000000000077e+01 1.559018999999999977e+01 1.277492999999999945e+01 1.264235000000000042e+01 1.352239999999999931e+01 9.090239999999999654e+00 1.612684000000000140e+01 3.936010000000000009e+00 7.180349999999999788e+00 1.349995999999999974e+01 3.936020000000000074e+00 1.053350999999999971e+01 1.349995999999999974e+01 3.936030000000000140e+00 8.418110000000000426e+00 1.418454999999999977e+01 1.868179999999999952e+00 9.874890000000000612e+00 1.472688999999999915e+01 7.695280000000000342e+00 1.054701999999999984e+01 1.666917000000000115e+01 9.763109999999999289e+00 8.637119999999999465e+00 1.404228999999999949e+01 9.763109999999999289e+00 1.199028000000000027e+01 1.404228999999999949e+01 9.763109999999999289e+00 1.200379000000000040e+01 1.721152000000000015e+01 1.559019999999999939e+01 1.009387000000000079e+01 1.458460999999999963e+01 1.559019999999999939e+01 1.344705000000000084e+01 1.458461999999999925e+01 1.559019999999999939e+01 1.133165999999999940e+01 1.526920999999999928e+01 1.352236000000000082e+01 8.811700000000000088e-01 2.021310000000000162e+00 2.902099999999999902e+00 1.507479999999999931e+00 3.947420000000000151e+00 4.784110000000000085e+00 2.164909999999999890e+00 2.722080000000000055e+00 1.020229999999999970e+00 6.974840000000000373e+00 3.264409999999999812e+00 6.847319999999999851e+00 2.950740000000000141e+00 1.320549999999999891e+00 4.784169999999999590e+00 4.234340000000000437e+00 2.021329999999999849e+00 2.902099999999999902e+00 4.860649999999999693e+00 3.947420000000000151e+00 4.784110000000000085e+00 3.608179999999999943e+00 9.515999999999999459e-02 1.020229999999999970e+00 2.337940000000000129e+00 2.563649999999999984e+00 8.729179999999999495e+00 3.621669999999999945e+00 3.264409999999999812e+00 6.847319999999999851e+00 5.518069999999999808e+00 2.722080000000000055e+00 1.020229999999999970e+00 5.691119999999999735e+00 2.563660000000000050e+00 8.729189999999999117e+00 5.064939999999999998e+00 6.374900000000000011e-01 6.847310000000000230e+00 2.964259999999999895e+00 4.489740000000000286e+00 1.061120000000000019e+01 4.407519999999999882e+00 1.862900000000000000e+00 1.061125999999999969e+01 6.317429999999999879e+00 4.489760000000000417e+00 1.061120000000000019e+01 3.794719999999999871e+00 3.105989999999999807e+00 1.455627999999999922e+01 4.421020000000000394e+00 5.032090000000000174e+00 1.643830000000000169e+01 5.078450000000000131e+00 3.806750000000000078e+00 1.267440999999999995e+01 8.431620000000000559e+00 3.806750000000000078e+00 1.267440999999999995e+01 5.864289999999999559e+00 2.405229999999999979e+00 1.643834000000000017e+01 7.147879999999999789e+00 3.105980000000000185e+00 1.455626999999999960e+01 7.774189999999999934e+00 5.032079999999999664e+00 1.643830000000000169e+01 6.521720000000000184e+00 1.179840000000000000e+00 1.267440999999999995e+01 2.791110000000000202e+00 4.648200000000000109e+00 2.902159999999999851e+00 1.347820000000000018e+00 7.275070000000000370e+00 2.902099999999999902e+00 5.531600000000000072e+00 5.891259999999999941e+00 6.847310000000000230e+00 3.417400000000000215e+00 6.574309999999999654e+00 4.784159999999999968e+00 4.700990000000000002e+00 7.275070000000000370e+00 2.902089999999999836e+00 4.074830000000000396e+00 5.348930000000000184e+00 1.020229999999999970e+00 4.247869999999999813e+00 5.190540000000000376e+00 8.729240000000000776e+00 2.804590000000000138e+00 7.817409999999999748e+00 8.729179999999999495e+00 6.157759999999999678e+00 7.817400000000000126e+00 8.729189999999999117e+00 4.874179999999999957e+00 7.116640000000000299e+00 1.061125000000000007e+01 5.704659999999999620e+00 5.732859999999999623e+00 1.455633000000000088e+01 4.261370000000000324e+00 8.359730000000000771e+00 1.455625999999999998e+01 6.988380000000000258e+00 6.433580000000000076e+00 1.267440000000000033e+01 6.330960000000000143e+00 7.658970000000000056e+00 1.643833000000000055e+01 7.614530000000000243e+00 8.359730000000000771e+00 1.455625999999999998e+01 1.974129999999999940e+00 9.201180000000000803e+00 4.784110000000000085e+00 2.631559999999999899e+00 7.975830000000000197e+00 1.020240000000000036e+00 3.257760000000000211e+00 9.901960000000000761e+00 2.902169999999999916e+00 5.327289999999999637e+00 9.201169999999999405e+00 4.784110000000000085e+00 7.441489999999999938e+00 8.518159999999999954e+00 6.847339999999999982e+00 3.884059999999999846e+00 1.182807000000000031e+01 4.784169999999999590e+00 4.541479999999999961e+00 1.060266999999999982e+01 1.020219999999999905e+00 4.088339999999999641e+00 8.518169999999999575e+00 6.847319999999999851e+00 4.714540000000000397e+00 1.044427999999999912e+01 8.729250000000000398e+00 5.984720000000000262e+00 7.975830000000000197e+00 1.020229999999999970e+00 5.998249999999999638e+00 1.114500999999999920e+01 6.847319999999999851e+00 3.430909999999999904e+00 9.743499999999999162e+00 1.061120999999999981e+01 6.784069999999999823e+00 9.743510000000000559e+00 1.061120000000000019e+01 5.340830000000000410e+00 1.237039000000000044e+01 1.061125999999999969e+01 4.887690000000000090e+00 1.028583000000000069e+01 1.643828999999999851e+01 5.545110000000000205e+00 9.060489999999999711e+00 1.267440000000000033e+01 6.171310000000000073e+00 1.098662999999999990e+01 1.455635000000000012e+01 8.240840000000000387e+00 1.028583000000000069e+01 1.643827999999999889e+01 8.898260000000000502e+00 9.060499999999999332e+00 1.267440999999999995e+01 6.797600000000000087e+00 1.291272000000000020e+01 1.643834000000000017e+01 7.455029999999999824e+00 1.168735000000000035e+01 1.267440000000000033e+01 1.814480000000000093e+00 1.252882999999999925e+01 2.902089999999999836e+00 2.440789999999999793e+00 1.445492999999999917e+01 4.784110000000000085e+00 3.098230000000000040e+00 1.322959999999999958e+01 1.020240000000000036e+00 3.724429999999999907e+00 1.515569999999999951e+01 2.902169999999999916e+00 5.167650000000000077e+00 1.252882999999999925e+01 2.902099999999999902e+00 5.793949999999999712e+00 1.445492999999999917e+01 4.784119999999999706e+00 3.271259999999999835e+00 1.307114999999999938e+01 8.729189999999999117e+00 4.554979999999999585e+00 1.377191999999999972e+01 6.847330000000000361e+00 5.181189999999999962e+00 1.569805000000000028e+01 8.729250000000000398e+00 6.624410000000000132e+00 1.307116000000000078e+01 8.729189999999999117e+00 6.451389999999999958e+00 1.322959999999999958e+01 1.020229999999999970e+00 7.908159999999999634e+00 1.377191999999999972e+01 6.847330000000000361e+00 3.897559999999999913e+00 1.499724999999999930e+01 1.061120000000000019e+01 7.250729999999999897e+00 1.499723999999999968e+01 1.061120000000000019e+01 4.728030000000000399e+00 1.361349000000000053e+01 1.455626999999999960e+01 5.354330000000000034e+00 1.553959000000000046e+01 1.643830000000000169e+01 6.011750000000000149e+00 1.431424999999999947e+01 1.267441999999999958e+01 6.637959999999999638e+00 1.624036999999999864e+01 1.455634000000000050e+01 8.081189999999999429e+00 1.361349000000000053e+01 1.455626999999999960e+01 8.707509999999999195e+00 1.553959000000000046e+01 1.643830000000000169e+01 9.364919999999999689e+00 1.431424999999999947e+01 1.267440999999999995e+01 8.418120000000000047e+00 6.374999999999999556e-01 6.847310000000000230e+00 6.303919999999999746e+00 1.320559999999999956e+00 4.784169999999999590e+00 7.587500000000000355e+00 2.021319999999999784e+00 2.902089999999999836e+00 8.213820000000000121e+00 3.947420000000000151e+00 4.784119999999999706e+00 8.871230000000000615e+00 2.722080000000000055e+00 1.020229999999999970e+00 6.961339999999999861e+00 9.515999999999999459e-02 1.020219999999999905e+00 9.657069999999999155e+00 1.320559999999999956e+00 4.784180000000000099e+00 1.032801000000000080e+01 3.264419999999999877e+00 6.847319999999999851e+00 9.044269999999999143e+00 2.563660000000000050e+00 8.729189999999999117e+00 1.031451999999999991e+01 9.518000000000000071e-02 1.020219999999999905e+00 1.177129000000000048e+01 6.374999999999999556e-01 6.847319999999999851e+00 7.760690000000000310e+00 1.862900000000000000e+00 1.061125999999999969e+01 9.670579999999999288e+00 4.489749999999999908e+00 1.061120000000000019e+01 1.111386000000000074e+01 1.862880000000000091e+00 1.061125000000000007e+01 1.257061999999999991e+01 2.405229999999999979e+00 1.643834999999999980e+01 9.217449999999999477e+00 2.405219999999999914e+00 1.643834000000000017e+01 1.050103999999999971e+01 3.105989999999999807e+00 1.455627999999999922e+01 1.112735999999999947e+01 5.032090000000000174e+00 1.643828999999999851e+01 1.178478999999999921e+01 3.806740000000000013e+00 1.267441999999999958e+01 9.874890000000000612e+00 1.179829999999999934e+00 1.267440000000000033e+01 1.322804000000000002e+01 1.179840000000000000e+00 1.267440000000000033e+01 6.144269999999999676e+00 4.648189999999999600e+00 2.902159999999999851e+00 9.497439999999999216e+00 4.648209999999999731e+00 2.902169999999999916e+00 6.770579999999999821e+00 6.574320000000000164e+00 4.784169999999999590e+00 8.054159999999999542e+00 7.275070000000000370e+00 2.902089999999999836e+00 7.427999999999999936e+00 5.348919999999999675e+00 1.020229999999999970e+00 1.012373999999999974e+01 6.574300000000000033e+00 4.784159999999999968e+00 7.601049999999999862e+00 5.190540000000000376e+00 8.729260000000000019e+00 1.095421999999999940e+01 5.190540000000000376e+00 8.729250000000000398e+00 9.510939999999999728e+00 7.817409999999999748e+00 8.729179999999999495e+00 8.884769999999999612e+00 5.891250000000000320e+00 6.847319999999999851e+00 1.078115999999999985e+01 5.348919999999999675e+00 1.020229999999999970e+00 1.223792000000000080e+01 5.891250000000000320e+00 6.847310000000000230e+00 8.227349999999999497e+00 7.116640000000000299e+00 1.061125000000000007e+01 1.158051000000000030e+01 7.116649999999999920e+00 1.061125000000000007e+01 9.057809999999999917e+00 5.732859999999999623e+00 1.455634000000000050e+01 1.241098999999999997e+01 5.732870000000000132e+00 1.455635000000000012e+01 9.684110000000000440e+00 7.658970000000000056e+00 1.643834000000000017e+01 1.096768999999999927e+01 8.359750000000000014e+00 1.455626999999999960e+01 1.034154000000000018e+01 6.433600000000000207e+00 1.267440999999999995e+01 1.303729000000000049e+01 7.658970000000000056e+00 1.643834000000000017e+01 1.369469999999999921e+01 6.433580000000000076e+00 1.267440000000000033e+01 9.351409999999999556e+00 1.114499999999999957e+01 6.847319999999999851e+00 6.610920000000000130e+00 9.901960000000000761e+00 2.902159999999999851e+00 8.680460000000000065e+00 9.201169999999999405e+00 4.784110000000000085e+00 9.337889999999999802e+00 7.975830000000000197e+00 1.020229999999999970e+00 9.964100000000000179e+00 9.901960000000000761e+00 2.902159999999999851e+00 7.237219999999999764e+00 1.182807000000000031e+01 4.784159999999999968e+00 7.894660000000000011e+00 1.060267999999999944e+01 1.020219999999999905e+00 1.059037999999999968e+01 1.182807000000000031e+01 4.784180000000000099e+00 1.142087000000000074e+01 1.044430000000000014e+01 8.729250000000000398e+00 8.067690000000000694e+00 1.044429000000000052e+01 8.729260000000000019e+00 1.079466000000000037e+01 8.518169999999999575e+00 6.847330000000000361e+00 1.124782000000000082e+01 1.060266999999999982e+01 1.020219999999999905e+00 1.270457999999999998e+01 1.114499999999999957e+01 6.847319999999999851e+00 1.013724000000000025e+01 9.743510000000000559e+00 1.061120999999999981e+01 8.694010000000000460e+00 1.237039000000000044e+01 1.061125999999999969e+01 1.204715999999999987e+01 1.237039000000000044e+01 1.061125000000000007e+01 1.350393000000000043e+01 1.291273999999999944e+01 1.643834999999999980e+01 9.524470000000000880e+00 1.098662999999999990e+01 1.455634000000000050e+01 1.159399999999999942e+01 1.028584000000000032e+01 1.643830000000000169e+01 1.225142999999999915e+01 9.060510000000000730e+00 1.267440999999999995e+01 1.287762999999999991e+01 1.098662000000000027e+01 1.455633000000000088e+01 1.015077999999999925e+01 1.291272999999999982e+01 1.643834999999999980e+01 1.080819999999999936e+01 1.168732999999999933e+01 1.267440999999999995e+01 1.416136999999999979e+01 1.168735000000000035e+01 1.267440999999999995e+01 1.188752999999999993e+01 1.569805000000000028e+01 8.729250000000000398e+00 7.077580000000000204e+00 1.515570999999999913e+01 2.902159999999999851e+00 8.520820000000000505e+00 1.252882999999999925e+01 2.902089999999999836e+00 9.147119999999999251e+00 1.445491999999999955e+01 4.784110000000000085e+00 9.804539999999999367e+00 1.322958000000000034e+01 1.020229999999999970e+00 1.043075999999999937e+01 1.515569999999999951e+01 2.902159999999999851e+00 1.126131999999999955e+01 1.377191999999999972e+01 6.847330000000000361e+00 8.534349999999999881e+00 1.569804000000000066e+01 8.729250000000000398e+00 9.977589999999999293e+00 1.307116000000000078e+01 8.729169999999999874e+00 1.060388999999999982e+01 1.499724999999999930e+01 1.061120000000000019e+01 1.334430000000000049e+01 1.624036999999999864e+01 1.455635000000000012e+01 9.991139999999999688e+00 1.624037999999999826e+01 1.455635000000000012e+01 1.143435000000000024e+01 1.361350000000000016e+01 1.455625999999999998e+01 1.206066000000000038e+01 1.553959000000000046e+01 1.643828999999999851e+01 1.271808000000000050e+01 1.431424999999999947e+01 1.267441999999999958e+01