-2.545438524260000122e+03
-2.545516796349999822e+03
-2.545661657449999893e+03
-2.545874724090000200e+03
-2.546158889949999775e+03
-2.546518350759999976e+03
-2.546958296069999960e+03
-2.547485006230000181e+03
-2.548105381119999947e+03
-2.548826735009999993e+03
