1.669249999999999901e-01 3.425790000000000224e-01 1.478771999999999975e+00 -1.690480000000000038e-01 -3.427990000000000204e-01 -1.476345000000000018e+00 -1.682250000000000134e-01 -3.439940000000000220e-01 -1.476420999999999983e+00 -1.689029999999999976e-01 -3.423950000000000049e-01 -1.476747000000000032e+00 -1.687569999999999903e-01 -3.431350000000000233e-01 -1.476189999999999891e+00 -1.676269999999999982e-01 -3.443930000000000047e-01 -1.476917000000000035e+00 -1.689749999999999863e-01 -3.422490000000000254e-01 -1.476337999999999928e+00 1.670639999999999903e-01 3.428780000000000161e-01 1.478337000000000012e+00 1.668580000000000063e-01 3.427299999999999791e-01 1.478442999999999952e+00 -1.686840000000000006e-01 -3.425270000000000259e-01 -1.476182000000000105e+00 -1.678300000000000070e-01 -3.436540000000000150e-01 -1.476695000000000091e+00 -1.683630000000000126e-01 -3.427029999999999799e-01 -1.476741000000000081e+00 1.674720000000000097e-01 3.424440000000000262e-01 1.477621000000000073e+00 1.671930000000000083e-01 3.427819999999999756e-01 1.477702999999999989e+00 -1.677220000000000100e-01 -3.434220000000000050e-01 -1.476979999999999960e+00 1.672889999999999933e-01 3.427410000000000179e-01 1.477632999999999974e+00 -1.676630000000000065e-01 -3.431649999999999978e-01 -1.477038999999999991e+00 1.673719999999999930e-01 3.425500000000000211e-01 1.477651999999999965e+00 1.671600000000000030e-01 3.427979999999999916e-01 1.477808000000000010e+00 1.671789999999999943e-01 3.420440000000000147e-01 1.478031000000000095e+00 1.672869999999999913e-01 3.422209999999999974e-01 1.477769000000000110e+00 1.674140000000000073e-01 3.426779999999999826e-01 1.477497000000000060e+00 -1.670949999999999935e-01 -3.439209999999999767e-01 -1.477319999999999967e+00 1.674859999999999960e-01 3.422419999999999907e-01 1.477537000000000100e+00 -1.689410000000000078e-01 -3.435799999999999965e-01 -1.475754000000000010e+00 -1.692770000000000108e-01 -3.432189999999999963e-01 -1.475611999999999924e+00 1.665459999999999996e-01 3.440170000000000172e-01 1.478150999999999993e+00 -1.679569999999999952e-01 -3.431119999999999726e-01 -1.476927000000000101e+00 1.665179999999999993e-01 3.436440000000000050e-01 1.478472000000000008e+00 -1.686650000000000094e-01 -3.436069999999999958e-01 -1.476061999999999985e+00 -1.689990000000000103e-01 -3.434659999999999935e-01 -1.475810000000000066e+00 -1.673479999999999968e-01 -3.436509999999999843e-01 -1.477338000000000040e+00 1.669849999999999945e-01 3.429789999999999783e-01 1.478410999999999920e+00 1.667549999999999866e-01 3.436029999999999918e-01 1.478216999999999892e+00 -1.687009999999999899e-01 -3.435559999999999725e-01 -1.476135999999999893e+00 -1.689769999999999883e-01 -3.436000000000000165e-01 -1.476039000000000101e+00 1.664059999999999984e-01 3.433849999999999958e-01 1.478684000000000109e+00 -1.681249999999999967e-01 -3.436250000000000138e-01 -1.476758000000000015e+00 1.663270000000000026e-01 3.435630000000000073e-01 1.478409000000000084e+00 1.664430000000000076e-01 3.435670000000000113e-01 1.478115999999999985e+00 1.663479999999999959e-01 3.439760000000000040e-01 1.477999999999999980e+00 1.681789999999999952e-01 3.416020000000000167e-01 1.477602000000000082e+00 -1.686410000000000131e-01 -3.431549999999999878e-01 -1.476207000000000047e+00 -1.686199999999999921e-01 -3.432319999999999816e-01 -1.476015999999999995e+00 -1.685709999999999986e-01 -3.432259999999999756e-01 -1.476266999999999996e+00 -1.686269999999999991e-01 -3.430719999999999881e-01 -1.476469000000000031e+00 1.670129999999999948e-01 3.432859999999999800e-01 1.477422000000000013e+00 1.662170000000000036e-01 3.439639999999999920e-01 1.477978999999999932e+00 1.676350000000000062e-01 3.419420000000000237e-01 1.477961999999999998e+00 1.666060000000000041e-01 3.437680000000000180e-01 1.477465999999999946e+00 1.663669999999999871e-01 3.439159999999999995e-01 1.477354000000000056e+00 1.674819999999999920e-01 3.420599999999999752e-01 1.477805000000000035e+00 -1.687649999999999983e-01 -3.429880000000000151e-01 -1.476129999999999942e+00 -1.686840000000000006e-01 -3.424900000000000166e-01 -1.476402999999999910e+00 1.669080000000000008e-01 3.429159999999999986e-01 1.478739000000000026e+00 -1.680760000000000032e-01 -3.442959999999999909e-01 -1.476399000000000017e+00 1.671030000000000015e-01 3.427319999999999811e-01 1.478493000000000057e+00 -1.689640000000000031e-01 -3.424840000000000106e-01 -1.476412999999999975e+00 -1.681300000000000017e-01 -3.442270000000000052e-01 -1.476423000000000041e+00 -1.681930000000000092e-01 -3.442640000000000144e-01 -1.476379000000000108e+00 -1.686640000000000084e-01 -3.429719999999999991e-01 -1.476537999999999906e+00 -1.680760000000000032e-01 -3.439289999999999847e-01 -1.476790999999999965e+00 1.667099999999999971e-01 3.421310000000000184e-01 1.478660000000000085e+00 1.675790000000000057e-01 3.424289999999999834e-01 1.477878999999999943e+00 1.668080000000000118e-01 3.432310000000000083e-01 1.478394999999999904e+00 -1.686179999999999901e-01 -3.435900000000000065e-01 -1.476369999999999960e+00 1.669360000000000011e-01 3.430289999999999728e-01 1.478488999999999942e+00 -1.690280000000000116e-01 -3.425460000000000171e-01 -1.476226000000000038e+00 -1.683580000000000076e-01 -3.442160000000000220e-01 -1.475964999999999971e+00 1.670860000000000123e-01 3.432490000000000263e-01 1.477565000000000017e+00 -1.674059999999999993e-01 -3.435360000000000080e-01 -1.477163000000000004e+00 1.671120000000000105e-01 3.424159999999999981e-01 1.477770999999999946e+00 1.672960000000000003e-01 3.427259999999999751e-01 1.477565000000000017e+00 -1.677589999999999915e-01 -3.439800000000000080e-01 -1.476890999999999954e+00 -1.673240000000000005e-01 -3.437299999999999800e-01 -1.477247999999999895e+00 -1.675870000000000137e-01 -3.431500000000000106e-01 -1.477224000000000093e+00 1.671709999999999863e-01 3.432499999999999996e-01 1.477454000000000045e+00 1.671499999999999930e-01 3.427330000000000099e-01 1.477503000000000011e+00 1.668429999999999913e-01 3.436069999999999958e-01 1.477603000000000000e+00 1.670840000000000103e-01 3.426279999999999881e-01 1.477699000000000096e+00 -1.676549999999999985e-01 -3.439820000000000100e-01 -1.476962000000000108e+00 1.671469999999999900e-01 3.423160000000000092e-01 1.478018999999999972e+00 1.669549999999999923e-01 3.426310000000000189e-01 1.477986000000000022e+00 -1.676709999999999867e-01 -3.434900000000000175e-01 -1.476841999999999988e+00 -1.689610000000000001e-01 -3.431449999999999778e-01 -1.475951000000000013e+00 -1.678050000000000097e-01 -3.431400000000000006e-01 -1.477020000000000000e+00 1.667829999999999868e-01 3.436290000000000178e-01 1.478236000000000105e+00 -1.680169999999999997e-01 -3.430270000000000263e-01 -1.476823999999999915e+00 -1.694680000000000075e-01 -3.431669999999999998e-01 -1.475743999999999945e+00 -1.680139999999999967e-01 -3.434590000000000143e-01 -1.477025000000000032e+00 -1.679489999999999872e-01 -3.430639999999999801e-01 -1.477316999999999991e+00 1.665770000000000028e-01 3.436629999999999963e-01 1.478102999999999945e+00 -1.693870000000000098e-01 -3.439459999999999740e-01 -1.475699000000000094e+00 -1.679370000000000029e-01 -3.435509999999999953e-01 -1.477159000000000111e+00 1.663509999999999989e-01 3.437379999999999880e-01 1.478342000000000045e+00 -1.678330000000000100e-01 -3.432799999999999740e-01 -1.477119000000000071e+00 1.666390000000000093e-01 3.436949999999999728e-01 1.477800999999999920e+00 1.677230000000000110e-01 3.424289999999999834e-01 1.477878999999999943e+00 1.679329999999999989e-01 3.419920000000000182e-01 1.477675000000000072e+00 -1.685560000000000114e-01 -3.430940000000000101e-01 -1.475956999999999963e+00 -1.685329999999999884e-01 -3.430300000000000016e-01 -1.476715000000000000e+00 1.660139999999999949e-01 3.440790000000000237e-01 1.477621999999999991e+00 1.676420000000000132e-01 3.419059999999999877e-01 1.477769000000000110e+00 1.678910000000000124e-01 3.419369999999999910e-01 1.477557999999999927e+00 1.665820000000000078e-01 3.433430000000000093e-01 1.477532000000000068e+00 1.677939999999999987e-01 3.419340000000000157e-01 1.477382999999999891e+00 1.677510000000000112e-01 3.417910000000000115e-01 1.477613999999999983e+00 -1.689170000000000116e-01 -3.427499999999999991e-01 -1.476089999999999902e+00 7.870000000000000476e-04 -1.843999999999999936e-03 1.240000000000000054e-04 -3.680022000000000126e+00 -2.029113000000000167e+00 4.939326000000000327e+00 3.680117000000000083e+00 2.028735999999999873e+00 -4.939955999999999570e+00 3.680664999999999853e+00 2.029662000000000077e+00 -4.940242999999999718e+00 -3.678910000000000124e+00 -2.029974000000000167e+00 4.938038999999999845e+00 7.280000000000000230e-04 -2.471999999999999805e-03 5.159999999999999656e-04 -3.680000000000000160e+00 -2.029072000000000209e+00 4.939483000000000068e+00 3.679241999999999901e+00 2.028742999999999963e+00 -4.939835999999999672e+00 5.000000000000000409e-06 -6.470000000000000057e-04 2.246999999999999865e-03 3.680539000000000005e+00 2.029654999999999987e+00 -4.940087000000000117e+00 3.680072000000000010e+00 2.028884000000000132e+00 -4.939617000000000147e+00 6.599999999999999964e-04 -1.329000000000000103e-03 2.402000000000000055e-03 3.679399000000000086e+00 2.029182000000000041e+00 -4.940094000000000207e+00 -3.679619999999999891e+00 -2.029231999999999925e+00 4.939974000000000309e+00 -3.678653000000000173e+00 -2.028814000000000117e+00 4.939400000000000013e+00 -3.679972999999999939e+00 -2.029494000000000131e+00 4.940301999999999971e+00 1.108000000000000044e-03 -1.846999999999999901e-03 8.580000000000000387e-04 -3.679701000000000111e+00 -2.029196000000000222e+00 4.938123000000000040e+00 3.680651000000000117e+00 2.028922000000000114e+00 -4.940704000000000207e+00 3.679243000000000041e+00 2.029036000000000062e+00 -4.940096999999999738e+00 -3.679075999999999791e+00 -2.029876999999999931e+00 4.938138000000000361e+00 9.250000000000000409e-04 -1.981999999999999821e-03 2.400000000000000061e-04 -3.679666000000000103e+00 -2.029110000000000191e+00 4.937922000000000367e+00 3.679511999999999894e+00 2.030419000000000196e+00 -4.940101000000000298e+00 1.353999999999999952e-03 5.590000000000000351e-04 -3.759999999999999779e-04 -2.599999999999999840e-05 1.369999999999999961e-04 1.400999999999999902e-03 3.679266000000000147e+00 2.031229999999999869e+00 -4.939358999999999611e+00 -3.679311000000000220e+00 -2.027285000000000004e+00 4.938761000000000401e+00 -1.219999999999999974e-04 -6.499999999999999431e-05 1.820999999999999919e-03 3.679155000000000175e+00 2.030041000000000206e+00 -4.939485000000000348e+00 1.407000000000000048e-03 -2.500000000000000120e-05 8.000000000000000654e-05 4.710000000000000102e-04 -1.750999999999999952e-03 -3.800000000000000209e-05 -1.769999999999999926e-04 -1.103999999999999947e-03 1.890000000000000133e-04 -3.678857999999999961e+00 -2.029615000000000169e+00 4.938410000000000188e+00 1.098999999999999934e-03 -3.130000000000000187e-04 -5.259999999999999919e-04 -1.550000000000000000e-04 -1.510000000000000057e-03 1.572999999999999962e-03 3.678881000000000068e+00 2.029341000000000061e+00 -4.939694000000000251e+00 -3.679206000000000198e+00 -2.028375000000000039e+00 4.938220000000000276e+00 -1.700000000000000122e-04 -1.544000000000000017e-03 1.307999999999999918e-03 -3.679609999999999825e+00 -2.028836000000000084e+00 4.940513000000000154e+00 3.680540999999999840e+00 2.030072000000000099e+00 -4.939947000000000088e+00 2.237999999999999972e-03 9.049999999999999885e-04 -1.327999999999999970e-03 -3.679676000000000169e+00 -2.028398999999999841e+00 4.940307999999999922e+00 3.680184000000000122e+00 2.030193999999999832e+00 -4.941227999999999732e+00 -3.679291000000000089e+00 -2.028817000000000093e+00 4.938926999999999623e+00 3.679151000000000060e+00 2.031416999999999806e+00 -4.939130999999999716e+00 3.680191999999999908e+00 2.029640999999999806e+00 -4.940934000000000381e+00 1.595999999999999979e-03 1.559999999999999972e-04 -2.141999999999999807e-03 3.680251999999999857e+00 2.029806999999999917e+00 -4.939874999999999794e+00 3.679405000000000037e+00 2.030565999999999871e+00 -4.940649999999999764e+00 -3.679486999999999952e+00 -2.029015999999999931e+00 4.938899000000000150e+00 -3.679562999999999917e+00 -2.029841999999999924e+00 4.939833000000000141e+00 -3.679507000000000083e+00 -2.027861999999999831e+00 4.937731000000000314e+00 -3.679666000000000103e+00 -2.027820000000000178e+00 4.939653999999999989e+00 3.680502000000000162e+00 2.028728999999999782e+00 -4.940106000000000108e+00 1.817000000000000039e-03 5.820000000000000520e-04 -1.530000000000000056e-04 -3.679835000000000189e+00 -2.028372000000000064e+00 4.939779999999999838e+00 3.680180000000000007e+00 2.028773999999999855e+00 -4.940236999999999767e+00 -3.679355999999999849e+00 -2.027616000000000085e+00 4.938625000000000043e+00 3.679422000000000192e+00 2.030161000000000104e+00 -4.938526000000000415e+00 6.340000000000000149e-04 -8.210000000000000067e-04 3.240000000000000150e-04 -3.679847000000000090e+00 -2.029243999999999826e+00 4.940165999999999613e+00 3.680209000000000064e+00 2.029581999999999997e+00 -4.941313000000000066e+00 1.196000000000000014e-03 -6.239999999999999887e-04 -2.027000000000000156e-03 2.919999999999999961e-04 -6.859999999999999779e-04 4.429999999999999802e-04 -3.679476999999999887e+00 -2.029612999999999889e+00 4.939991000000000021e+00 -1.079999999999999960e-04 2.599999999999999840e-05 9.499999999999999981e-04 3.680425000000000058e+00 2.029341000000000061e+00 -4.941723999999999783e+00 7.349999999999999763e-04 2.910000000000000260e-04 -1.150000000000000035e-04 4.569999999999999952e-04 -4.979999999999999618e-04 3.510000000000000208e-04 3.680159000000000180e+00 2.029382000000000019e+00 -4.940879999999999939e+00 3.679877999999999982e+00 2.029323000000000210e+00 -4.941773000000000415e+00 -3.679616999999999916e+00 -2.027826999999999824e+00 4.939892000000000394e+00 -3.679628000000000121e+00 -2.027216000000000129e+00 4.939811999999999870e+00 -2.660000000000000146e-04 4.899999999999999842e-04 3.370000000000000166e-03 -3.679549999999999876e+00 -2.029107999999999912e+00 4.940475000000000172e+00 3.680168999999999802e+00 2.031079000000000079e+00 -4.940508999999999595e+00 9.330000000000000186e-04 3.499999999999999964e-04 3.199999999999999855e-05 -3.800000000000000209e-05 7.200000000000000182e-05 3.297000000000000017e-03 -3.680334000000000216e+00 -2.029214000000000073e+00 4.940872999999999848e+00 3.680114000000000107e+00 2.030791999999999931e+00 -4.940144000000000091e+00 3.679445999999999994e+00 2.028979000000000088e+00 -4.940207000000000015e+00 -3.679209999999999869e+00 -2.030187000000000186e+00 4.938867000000000118e+00 1.067000000000000023e-03 -2.180000000000000080e-03 1.900000000000000105e-05 -3.680277999999999938e+00 -2.028979999999999784e+00 4.939466000000000356e+00 3.680107000000000017e+00 2.028938000000000130e+00 -4.939815000000000289e+00 3.679225999999999885e+00 2.028614999999999835e+00 -4.939483000000000068e+00 -3.678799999999999848e+00 -2.030299999999999994e+00 4.938298999999999772e+00 3.680301000000000045e+00 2.029313999999999840e+00 -4.939782000000000117e+00 2.730000000000000222e-04 -1.616000000000000032e-03 2.160000000000000028e-03 3.679101000000000177e+00 2.028493999999999797e+00 -4.939390000000000391e+00 3.679361000000000104e+00 2.029066999999999954e+00 -4.940231999999999957e+00 -3.679457999999999895e+00 -2.028407000000000071e+00 4.939020000000000188e+00 -3.680962000000000067e+00 -2.029256999999999866e+00 4.940604999999999691e+00 -3.679710000000000036e+00 -2.028246000000000215e+00 4.939343000000000039e+00 -3.678678000000000115e+00 -2.029621000000000119e+00 4.937908000000000186e+00 -3.679270999999999958e+00 -2.029903000000000013e+00 4.938428000000000040e+00 7.380000000000000492e-04 -1.894999999999999983e-03 6.790000000000000245e-04 -3.679533000000000165e+00 -2.028894999999999893e+00 4.937782000000000338e+00 3.680225000000000080e+00 2.029220000000000024e+00 -4.940675999999999846e+00 3.679040000000000088e+00 2.030202000000000062e+00 -4.939896000000000065e+00 3.680079000000000100e+00 2.030219000000000218e+00 -4.940237999999999907e+00 1.770000000000000089e-03 7.450000000000000025e-04 -8.339999999999999974e-04 1.266999999999999897e-03 2.280000000000000126e-04 -6.880000000000000265e-04 -3.679657999999999873e+00 -2.027619000000000060e+00 4.938623999999999903e+00 -5.689999999999999529e-04 -1.299999999999999886e-04 1.763999999999999943e-03 3.678862000000000076e+00 2.030285999999999813e+00 -4.939166000000000167e+00 -3.679402000000000061e+00 -2.027235000000000120e+00 4.938722000000000278e+00 8.429999999999999993e-04 -5.899999999999999754e-05 4.020000000000000136e-04 9.940000000000000918e-04 -2.570000000000000127e-04 3.890000000000000228e-04 -4.739999999999999747e-04 -1.864999999999999904e-03 8.409999999999999507e-04 3.679031999999999858e+00 2.031556999999999835e+00 -4.939657999999999660e+00 3.679324999999999957e+00 2.030317000000000149e+00 -4.940038000000000373e+00 3.679691000000000045e+00 2.031324999999999825e+00 -4.940160999999999802e+00 -3.679632999999999932e+00 -2.029814000000000007e+00 4.938709000000000238e+00 -3.679326999999999792e+00 -2.029549999999999965e+00 4.938708000000000098e+00 1.093000000000000005e-03 -4.350000000000000026e-04 -8.289999999999999843e-04 1.606999999999999922e-03 -4.169999999999999987e-04 -4.949999999999999973e-04 -3.678904999999999870e+00 -2.028502000000000027e+00 4.937776999999999639e+00 2.799999999999999958e-05 -1.531999999999999942e-03 1.312999999999999931e-03 3.678446999999999800e+00 2.029363000000000028e+00 -4.939180000000000348e+00 -3.679139999999999855e+00 -2.028389999999999915e+00 4.937894000000000005e+00 3.679536999999999836e+00 2.029281999999999808e+00 -4.939460999999999657e+00 3.679123999999999839e+00 2.030575999999999937e+00 -4.940997000000000305e+00 1.605000000000000090e-03 8.080000000000000160e-04 -8.050000000000000515e-04 -3.680105000000000182e+00 -2.028397000000000006e+00 4.940275999999999890e+00 3.680228000000000055e+00 2.030400999999999900e+00 -4.940167999999999893e+00 1.275000000000000092e-03 1.105999999999999995e-03 -6.999999999999999929e-04 -3.679612999999999801e+00 -2.028992000000000129e+00 4.939131999999999856e+00 3.679314000000000195e+00 2.031289999999999818e+00 -4.939074999999999882e+00 -3.679352000000000178e+00 -2.028719000000000161e+00 4.938627999999999574e+00 1.647000000000000026e-03 -5.710000000000000015e-04 -1.552999999999999910e-03 1.884999999999999957e-03 -2.799999999999999755e-04 -2.681999999999999922e-03 3.680591000000000168e+00 2.029535999999999785e+00 -4.941510000000000069e+00 3.679848999999999926e+00 2.031750000000000167e+00 -4.939511999999999681e+00 3.679882000000000097e+00 2.030524000000000218e+00 -4.941233999999999682e+00 -3.679810999999999943e+00 -2.029552999999999940e+00 4.939600999999999686e+00 -3.679415000000000102e+00 -2.027951999999999977e+00 4.937402999999999764e+00 -3.679415000000000102e+00 -2.027842000000000144e+00 4.937566999999999595e+00 -3.679177999999999837e+00 -2.027684999999999960e+00 4.938235999999999848e+00 1.634000000000000036e-03 4.299999999999999894e-04 -2.910000000000000260e-04 -3.679470999999999936e+00 -2.028310999999999975e+00 4.939537999999999762e+00 3.680258999999999947e+00 2.028493999999999797e+00 -4.939835999999999672e+00 1.546999999999999981e-03 8.549999999999999658e-04 2.269999999999999882e-04 -3.679428999999999839e+00 -2.027769000000000155e+00 4.938620000000000232e+00 3.679176000000000002e+00 2.031013999999999875e+00 -4.938971999999999696e+00 3.679373000000000005e+00 2.030632000000000215e+00 -4.938772000000000162e+00 7.960000000000000495e-04 -1.759999999999999954e-04 -3.170000000000000075e-04 1.554999999999999959e-03 -9.730000000000000151e-04 -1.966999999999999998e-03 5.789999999999999791e-04 -6.629999999999999609e-04 5.280000000000000405e-04 -3.680181999999999842e+00 -2.029263999999999957e+00 4.940324000000000382e+00 3.680286999999999864e+00 2.029904000000000153e+00 -4.940896999999999650e+00 1.284999999999999901e-03 -6.710000000000000469e-04 -2.197999999999999867e-03 3.679949000000000137e+00 2.029431000000000207e+00 -4.941492000000000218e+00 1.049000000000000019e-03 5.289999999999999564e-04 -5.749999999999999903e-04 1.219999999999999974e-04 -7.150000000000000322e-04 1.271999999999999910e-03 -3.679740999999999929e+00 -2.027759999999999785e+00 4.939589999999999925e+00 8.940000000000000464e-04 2.280000000000000126e-04 2.359999999999999902e-04 1.002999999999999985e-03 1.259999999999999998e-04 -4.079999999999999968e-04 -1.320000000000000101e-04 2.300000000000000070e-04 3.510000000000000099e-03 -3.679784999999999862e+00 -2.028792000000000151e+00 4.940523999999999916e+00 3.680426000000000197e+00 2.030543000000000209e+00 -4.940428999999999959e+00