-4.702360290699999723e+02
-4.702360312299999805e+02
-4.702360355199999731e+02
-4.702360420900000122e+02
-4.702360510799999815e+02
-4.702360625800000093e+02
