-5.128263648993506570e-05 -1.634829461388528360e-01 3.797315743013675651e-03 4.739257846302157126e-04 -9.629747943002612111e-04 1.804032953192652748e-03 -2.890920677534563449e-04 -1.088968015342713482e-03 2.240003669176142409e-03 -2.490149439802020418e-03 4.266055144318568748e-03 3.751838119253915298e-03 2.946844164108777461e-03 4.320053127254692808e-03 3.910058752775332630e-03 1.358678982729667436e-04 -1.599541562365751845e-04 3.241007803465078066e-03 -3.850123236418108181e-03 4.186047064523397074e-03 3.106783873717064957e-03 -6.212387587818579064e-05 -3.956822600340170753e-06 3.041997529190446515e-03 3.501875079994041552e-03 3.968041832536064670e-03 3.144086344132515382e-03 -3.127303504861408906e-06 3.904433631115760740e-05 3.126999321997817397e-03 2.187540593993934373e-05 -3.695664734616931421e-05 3.059001417592331368e-03 1.487374109274559988e-05 -3.095606057619119830e-05 3.100001047441679290e-03 5.287319445169153128e-05 -5.295590601648755261e-05 3.113002906732732864e-03 -2.612520326570264481e-05 -3.495639709562499994e-05 3.073999434622006789e-03 1.487578036896538789e-05 1.810432872238500722e-04 3.053998041798585469e-03 -1.254867660001567694e-07 -3.295631820915914412e-05 3.081000465002101899e-03 3.387296738102677564e-05 -3.095580607500626746e-05 3.119001821120188055e-03 4.087615065290325158e-05 -2.195691742492498740e-05 3.041001978638783066e-03 2.408699353882625283e-03 -2.860897991064896215e-03 7.328138652299523090e-03 2.405050697608652858e-03 2.860981245029340855e-03 -1.189942627828122212e-03 -4.812650082932180080e-05 -2.795592618096363123e-05 3.105998439489190705e-03 -3.913154005947380081e-05 -6.695418935516771815e-05 3.228999358795285775e-03 1.106873639939596945e-03 -5.495688724998328201e-05 3.102045854875562590e-03 -8.111783585735621912e-05 1.304109396115923962e-05 2.893996514609876655e-03 -2.624123561307291786e-03 -2.095492998483778528e-05 3.033893443399300963e-03 4.099226514952029562e-04 5.990267726781290606e-04 1.911008201292178302e-03 4.048298270488534978e-04 -4.679411956595987501e-04 4.170023123261579895e-03 -1.631518543043835312e-01 -5.409230799530055991e-04 -3.591636014798733900e-03 6.136136542373589985e-03 6.369478274570617576e-04 -3.340759164987088664e-03 6.050115431161661936e-03 -7.370451295914351051e-04 -2.848743187190643129e-03 6.840628383254596535e-04 -2.486023092191176100e-03 -1.590936899538865747e-03 4.371664254925228428e-04 2.805942478499102825e-03 -4.033021984043280370e-03 1.512427068831717716e-05 1.959567743150315052e-04 -3.048002165195456883e-03 6.201049370088612461e-04 -3.430037957024978292e-03 -2.642926120886686381e-03 -1.638713688990450226e-04 1.999553974468363257e-04 -3.155009510839393641e-03 6.781506564408734238e-04 3.416947946675783377e-03 -3.634020833302549752e-03 -2.861774356849255962e-03 -9.270765733359736258e-04 -5.559103395121524176e-03 -4.386619914394516615e-05 -6.204656795527773339e-05 -3.287000909640524354e-03 2.854224479420608938e-03 -9.510806519613113075e-04 -5.530870294496247064e-03 -2.907266043604684301e-05 4.087026435527633603e-03 1.862940872844185379e-03 -4.609010240695131985e-04 8.619661356763215574e-04 -2.414030991300422993e-03 6.060997745994021156e-04 8.949650308379844630e-04 -2.432988010000813189e-03 -5.687641614613838455e-05 -5.704299915019559738e-05 -3.036001510133735145e-03 1.112180305053072355e-05 -4.304242857234957776e-05 -2.991998939645450044e-03 -2.782278907469118629e-05 1.479383626769376276e-04 -4.349003234450000803e-03 3.612648751852531826e-05 1.095593557863129841e-05 -3.105998687117425029e-03 -4.087263690705996057e-05 3.695569813301157976e-05 -3.127002191225289763e-03 -4.487328376072294923e-05 -9.044086063436020687e-06 -3.112001701945519162e-03 -2.887545449070842851e-05 2.695666700594588194e-05 -3.058001560861584034e-03 -1.387381785879541670e-05 -1.504392602437226466e-05 -3.099000354544638198e-03 -2.587330099011694273e-05 2.095591323440803601e-05 -3.111001353583181354e-03 -4.287461344577935229e-05 8.956380236004048191e-06 -3.079001875734236043e-03 1.821251193439157672e-04 3.195630330411783441e-05 -3.071993039637801581e-03 -2.287669333452056658e-05 5.695710181660086944e-05 -3.027001741898199209e-03 2.087620473261562679e-02 -6.385089375007985645e-03 -5.150059381703989830e-03 2.929003416554101444e-03 -2.003484330349612083e-06 -8.388070019346619921e-05 2.020681943304284897e-02 5.984048672184528149e-03 4.549738002273182730e-03 9.988006763887587527e-03 -3.601018825380189291e-05 -1.665927695843193873e-04 2.712043392027661988e-03 1.540983188163078327e-03 -1.035911412022210657e-03 2.568965826091455969e-03 -1.515990527350050176e-03 8.101261046029601797e-04 -4.649682500120498108e-04 -1.887011204797572634e-03 -8.159921809975543769e-04 -4.740390342716753881e-04 1.996014506200935283e-03 9.969523985738806653e-04 1.960011925203815363e-04 6.699944954772889000e-05 -2.799296859730468688e-05 -1.420990819752694125e-03 9.049981635648676618e-04 -2.080706950120180486e-04 1.481017517826816636e-03 9.989930132080881552e-04 -4.109538556231350946e-04 -4.774134395607060145e-06 2.368092782237147045e-02 -5.091335942488337159e-03 6.175886588373302559e-03 1.356503834841291112e-02 3.046059167783506973e-03 3.495114439997313037e-05 -1.546983439228335165e-03 1.170023357142242716e-03 -6.283117746694462727e-03 1.352804960661205605e-02 3.151552351178155739e-03 6.195200744840311977e-05 3.556017630806570465e-03 1.246952107406670753e-03 1.981020833388513151e-03 1.748991671722112048e-03 -4.779441284578940649e-04 -1.929979967598048412e-03 1.761995017574674713e-03 -4.581035720361282247e-04 3.997845685047913788e-06 -4.699926588188759412e-05 5.200082918994830181e-05 -2.600097181856277865e-05 -4.499965354827008165e-05 2.299957923584622927e-05 3.699720122636154036e-05 6.600096346816411485e-05 7.000057087403059087e-05 2.799990443077400470e-05 -1.799999356648703398e-05 2.001395381714478314e-06 -4.799831392572378503e-05 7.299947046464171476e-05 -4.000298954040277122e-05 -6.199834606560646749e-05 -2.000053274183199753e-05 -4.100224109938635069e-05 3.600000388800902914e-05 4.999971811634329325e-06 1.395061822862542241e-09 2.998979600809736084e-06 -5.499966207635512502e-05 2.400090191723368464e-05 -3.600176820487880182e-05 -2.199936216471991637e-05 4.299884592018335172e-05 -1.410619684532001851e-02 1.737043249155465277e-02 2.972517933701033024e-02 7.470980424601854006e-04 -1.026686830966203143e-03 2.213004499918770282e-02 1.361283000475961569e-02 1.830240168544562326e-02 2.908429486520368312e-02 -2.270400051940126408e-04 4.014902505572350705e-02 1.754421531709906721e-03 1.452137223140979047e-03 2.205299856679857236e-03 2.123002788569285093e-02 -1.815825018593742509e-03 1.175288989242921764e-03 2.028290941392810534e-02 -8.008312392378740896e-04 1.812290533773841354e-03 2.044794171420327711e-02 1.439153782179510054e-03 1.667293954772377509e-03 2.081303498434617857e-02 1.790660543207867701e-04 3.777326061395643898e-03 2.300795375895238470e-02 2.215126415685614024e-05 6.329550395128826174e-05 2.084400002400392873e-02 -5.685577423933664115e-05 1.929800439322275175e-05 2.101599743071839305e-02 -5.584788064081041263e-05 6.329526729128579431e-05 2.082299684779706506e-02 -1.286599131378698792e-05 -2.769848560502916778e-05 2.126599988855832485e-02 -3.084939991976426513e-05 -5.670425604868302704e-05 2.085799956711742106e-02 -1.578469894491348817e-04 -4.670499309910576362e-05 2.079899425384654221e-02 -1.854056173938299379e-06 2.929736586002080429e-05 2.097399952862661135e-02 -5.385603815620208914e-05 -5.701912886473252490e-06 2.102199790731945281e-02 -1.887212840205000080e-05 -1.269634006146455802e-05 2.141699943142639367e-02 -1.103857359941549628e-03 -3.070063704853761367e-05 2.105395550484012029e-02 3.513606041898738964e-05 -1.514699643084771626e-03 2.118702292556689376e-02 8.814081049075721058e-05 1.481299478624474196e-03 2.112798260724749883e-02 -1.758798690604478120e-03 4.762795873376683806e-04 1.962292164588681775e-02 -1.682920264739686629e-03 -4.356783923814614139e-04 2.259093766803273520e-02 1.229141340566575376e-03 2.829800408272970463e-05 2.108704967006705747e-02 7.702053857346545475e-04 -9.707242074715422908e-04 1.949504514426201457e-02 2.151142039891883184e-03 3.829704113674464825e-05 2.107008707292995150e-02 8.650771833714170208e-04 1.143320930920120691e-03 2.268401903798641234e-02 3.209845669601711637e-02 -1.390753611234831627e-02 -3.603949577918150876e-02 3.269220321851015049e-02 1.320990724074131394e-02 -4.735856037787189270e-03 2.783834531245639714e-03 -2.592928096793424499e-04 -2.049888298277476734e-02 -6.700847683545890906e-04 -6.893183189800438379e-04 -2.248901753430633185e-02 1.347903428454884757e-03 3.076844817719717805e-04 -2.217994949514619923e-02 5.778515787180091637e-04 1.486703458982945860e-03 -2.088399756698944981e-02 1.035085750132591804e-02 5.846934958718016896e-04 -2.104658681361731495e-02 3.051806011531627873e-03 -1.941283548585444677e-03 -1.983084822320948723e-02 2.599916250728928797e-03 2.277679574012870557e-03 -2.245692644257713672e-02 2.886220608850831510e-05 -1.061300506011859414e-03 -2.119398379750722303e-02 1.566791500363695026e-03 -5.582769558799512751e-04 -1.944792830187630842e-02 -1.488209672546815000e-03 -6.032741668438882038e-04 -1.942005206610314047e-02 -1.011098131934168656e-03 -1.478313614248865510e-03 -2.217602023415215368e-02 1.017899316641527512e-03 -1.458314309748974351e-03 -2.211293789515907104e-02 2.862698609752380047e-06 2.061700194565383414e-03 -2.114602913344927962e-02 4.929040905250262321e-04 1.203685165321153380e-03 -2.217899701475090427e-02 6.886357366586179720e-05 1.255699618390463063e-03 -2.118301501856135680e-02 -4.400939204071629908e-04 1.246685215318054816e-03 -2.222703561690420396e-02 3.784085083831389713e-05 -4.429280044067255390e-05 -2.064999785031071053e-02 -6.613704079359625080e-05 -4.830041755155132686e-05 -2.119300202806340128e-02 3.485137092184780421e-05 -2.629645596470241018e-05 -2.090799822743316660e-02 -2.814449117168856738e-05 -4.629785276905540385e-05 -2.101000050919670306e-02 -8.143986891708008015e-06 -7.829805273709228254e-05 -2.102299924107916412e-02 -7.145286016569019900e-06 -2.129758565858769971e-05 -2.099000000852150813e-02 -1.479117204914099740e-07 5.703330414415905556e-06 -2.092500010633558533e-02 -4.158989427747834576e-06 -1.522928526107185431e-04 -2.065599802938242538e-02 3.386612597108409970e-05 -8.301587545442346320e-06 -2.126999852301724933e-02
-4.628250879658499104e-05 -1.633719461569567710e-01 3.796314372887115568e-03 4.679257039770856131e-04 -9.619747612467943222e-04 1.806032694687923455e-03 -2.930923567138862991e-04 -1.093967912965657227e-03 2.247003577175048228e-03 -2.484149924539209679e-03 4.271055309753631762e-03 3.763838292679049652e-03 2.949843754547168840e-03 4.317053266683960888e-03 3.920058917461880475e-03 1.278674479996413590e-04 -1.629539940165545024e-04 3.252007520221334227e-03 -3.853123674941978574e-03 4.198047222826925204e-03 3.117783581411124813e-03 -7.012444517973723918e-05 -2.956617847336649685e-06 3.055997189232859818e-03 3.510874353280044741e-03 3.976042080688609384e-03 3.162086597181334481e-03 -2.127710714090923145e-06 3.904447730611508376e-05 3.136999362709372210e-03 2.587483662843506862e-05 -3.595645198911966774e-05 3.073001566284958280e-03 1.187317805563502463e-05 -2.195585973897495058e-05 3.114000797666240366e-03 4.587287025792421969e-05 -5.095578711335317656e-05 3.121002593323811847e-03 -2.512578041045359032e-05 -4.395619938857877181e-05 3.087999602929714961e-03 1.987549140107087479e-05 1.760433825539408856e-04 3.060998316285151385e-03 2.874184330497603543e-06 -3.695620713538145499e-05 3.089000643868272233e-03 2.387231977374803656e-05 -2.595557140082294646e-05 3.135001343007986271e-03 4.887558290522835353e-05 -1.895672520006158867e-05 3.055002261859287530e-03 2.406697149473908687e-03 -2.867897223897248726e-03 7.382138670051966063e-03 2.416049481459343722e-03 2.867981661749538762e-03 -1.159942279170992057e-03 -4.712825182627168862e-05 -2.795531731875916870e-05 3.148998480170069145e-03 -4.313345158491627298e-05 -6.395351986710344256e-05 3.275999153334899390e-03 1.112872058874021753e-03 -4.595633901484835114e-05 3.141045971564543956e-03 -7.611970666942328967e-05 1.604174222446273234e-05 2.939996675638080481e-03 -2.633125277060122289e-03 -2.795432746976144511e-05 3.075893176116942327e-03 4.119211033180502843e-04 5.980273098684615093e-04 1.949008296876319438e-03 4.038281559280954783e-04 -4.699406135867910937e-04 4.211023110858142481e-03 -1.630388535707185393e-01 -5.399234236319885253e-04 -3.609631427503587949e-03 6.150137564300847334e-03 6.419474620497274972e-04 -3.365758665760750726e-03 6.060116858733489639e-03 -7.340456336445368071e-04 -2.883742822482886388e-03 6.860642612024805530e-04 -2.489023589979703476e-03 -1.625936775531337201e-03 4.381676894048808332e-04 2.807942038204249129e-03 -4.064021971649138879e-03 1.512565284615710357e-05 1.929562922702916144e-04 -3.082002122630560139e-03 6.181063528370386601e-04 -3.442038451680614480e-03 -2.677926032162691091e-03 -1.658698622263058092e-04 1.999548744344002043e-04 -3.192009592246700458e-03 6.851522515999895020e-04 3.425947388259883812e-03 -3.673020675820208754e-03 -2.869773543992967801e-03 -9.290768506277100134e-04 -5.579103692514213696e-03 -3.886534557759890738e-05 -6.404686960375951491e-05 -3.308000677661220284e-03 2.859225250761701295e-03 -9.540809252541014715e-04 -5.549870048341038788e-03 -2.607256881039968793e-05 4.100026404821744373e-03 1.860940810697672785e-03 -4.679004469197858363e-04 8.709659426672523288e-04 -2.428031403933237752e-03 6.111001450006827394e-04 8.999648993223413737e-04 -2.441987877277008914e-03 -5.887589304214733358e-05 -6.504318189473651702e-05 -3.049001478141244881e-03 1.512220712131928878e-05 -4.704257348188458092e-05 -3.001998720041695618e-03 -2.882201537790157140e-05 1.479380940818218607e-04 -4.368003275153189806e-03 4.312681563016007092e-05 1.395581667499286787e-05 -3.113998444597320964e-03 -4.187226806795000085e-05 3.995557131554703523e-05 -3.136002274471064947e-03 -4.987300262856329624e-05 -1.404418139251872677e-05 -3.119001834654449874e-03 -2.687509584054199069e-05 1.695653784080342031e-05 -3.067001337633880678e-03 -6.873743475082579134e-06 -2.404395986002878067e-05 -3.100999941896949875e-03 -3.787298304917892426e-05 1.095580920900711512e-05 -3.119001700448323193e-03 -3.887411304541450827e-05 2.395620696896289196e-05 -3.091001925506128237e-03 1.851251671144289442e-04 4.095628677642670792e-05 -3.072993045074190032e-03 -2.887636756282407587e-05 5.695699309221490268e-05 -3.035001986215868797e-03 2.074619878750579016e-02 -6.333087189087809911e-03 -5.003065412794985810e-03 2.896000452579458855e-03 8.997576486476123662e-06 -1.088220000481187281e-05 2.009781628665854164e-02 5.970049849222763133e-03 4.626733762117520195e-03 9.919002500010216938e-03 -2.100864556006616429e-05 -6.159579208710628194e-05 2.688038088151910917e-03 1.527985050069693767e-03 -9.059122051325602804e-04 2.555962297493479668e-03 -1.497989283704718056e-03 8.971253199512781726e-04 -4.659708569285546040e-04 -1.888010296635572304e-03 -7.519922076001362386e-04 -4.820409387666202525e-04 1.956015164647523664e-03 1.042952639874848838e-03 2.019978377350544331e-04 4.700060743098797276e-05 5.400755920684428249e-05 -1.417984213576218731e-03 9.169958644118205359e-04 -3.700707428320313590e-04 1.468022203084920875e-03 1.001991392940269118e-03 -5.259544274205861470e-04 8.228544474799180078e-06 2.351392683394147587e-02 -5.160333045366631045e-03 6.145894510106261754e-03 1.343703557889001227e-02 2.849059761094828360e-03 2.795844048830235367e-05 -1.537985971573639426e-03 9.910229446628117736e-04 -6.238111009062362149e-03 1.339604718952091406e-02 2.983556055237406284e-03 6.495684303942093928e-05 3.543015941301244903e-03 1.127952413990771343e-03 1.977024077738281926e-03 1.731990540632181693e-03 -5.579440502449517503e-04 -1.927976023163240505e-03 1.754993640763237873e-03 -5.551033912599106883e-04 2.998886405527406670e-06 -6.999963371925220978e-05 2.600111458182649348e-05 -8.000538008574622611e-06 -6.299982359613525839e-05 1.200056742113432017e-05 2.299934142030354958e-05 4.300022300927469734e-05 1.700032691994342066e-05 2.000024352487858183e-05 -1.000100726594486529e-06 -5.999171399636609844e-06 -4.399854728405263189e-05 8.699955239801791048e-05 -3.400302515126443249e-05 -5.799842515988363377e-05 -1.700050751852832544e-05 -3.900212075113148246e-05 4.099988720635640754e-05 1.200001042933395959e-05 3.001499418945380020e-06 7.000335138814817645e-06 -4.000013307709890435e-05 -8.999147835137110004e-06 -4.300073999161738847e-05 -8.999711129941453852e-06 1.799837658654042047e-05 -1.392318642879747381e-02 1.730842870457919777e-02 2.946818766818632904e-02 6.891087771885466085e-04 -9.426905001432794818e-04 2.186804144668975936e-02 1.349983843482581436e-02 1.825139882494789673e-02 2.887629098700680158e-02 -2.070398683350535812e-04 3.980402489832041146e-02 1.744427237464621317e-03 1.468144738410958033e-03 2.078297192916989024e-03 2.104303033797626579e-02 -1.852816204105810997e-03 1.095285927462455238e-03 2.006490904168034203e-02 -8.028259486363264596e-04 1.860288706399393279e-03 2.031894095234884623e-02 1.414158592744380700e-03 1.674292301366722777e-03 2.069503386719024826e-02 2.040712798633411925e-04 3.742324212888666762e-03 2.287895527331530385e-02 -1.484284541995849074e-05 -6.706537028920205726e-06 2.069799950991160070e-02 -4.384994570996412908e-05 -2.570404738372306409e-05 2.087199859822267550e-02 -3.584165979673983128e-05 -7.069317426713334430e-07 2.066899856973410457e-02 -1.586130763112399071e-05 -2.670011370260828095e-05 2.115099975232491089e-02 -1.384422052646643190e-05 5.293944231916251081e-06 2.073199938046768609e-02 -1.778416228759924363e-04 -5.706834734508497743e-06 2.066799285826299154e-02 -4.784809600524796803e-05 4.829533191780552786e-05 2.082799738622567384e-02 -8.849706090412663457e-06 2.029585431779733681e-05 2.086699937127999352e-02 -3.286514632103276198e-05 1.130124649505503861e-05 2.124599852122711907e-02 -1.116851843811602057e-03 -6.702540874381097517e-06 2.091895463532823102e-02 4.614168615437345625e-05 -1.506701608234296092e-03 2.104902326020242909e-02 9.614619582145884479e-05 1.494297600890206849e-03 2.099598274882609125e-02 -1.744790940335738498e-03 4.932768825928893555e-04 1.943292197513337566e-02 -1.695913920872189548e-03 -3.946805797649259638e-04 2.243593655751745936e-02 1.247147781496529481e-03 3.729574989622420618e-05 2.092905027558937883e-02 8.132113003822660346e-04 -1.009726311094568578e-03 1.934904744832711271e-02 2.134148569319726987e-03 4.294771826053409685e-06 2.090908686286910637e-02 8.420828584501697470e-04 1.110318964041008376e-03 2.254401856940317639e-02 3.195244170073258116e-02 -1.381653075225576857e-02 -3.566950301494620917e-02 3.249119389825597115e-02 1.311191061649296871e-02 -4.508862833468463283e-03 2.713820694053829200e-03 -2.492879344201961674e-04 -2.015888597532804194e-02 -6.700965617517039806e-04 -7.213142215939577278e-04 -2.220001708088655684e-02 1.355891409506876887e-03 2.476886437858880205e-04 -2.188594831898688434e-02 5.558393694864514466e-04 1.391707701201456548e-03 -2.058599711623766357e-02 1.031684622875857910e-02 6.456974639146324932e-04 -2.076858906322824952e-02 3.003793786750089383e-03 -1.848279229316804892e-03 -1.952885149662308278e-02 2.573906007904574068e-03 2.301683167172782242e-03 -2.220492784181984577e-02 3.385202114793623335e-05 -1.119296979649947845e-03 -2.094498277182415408e-02 1.516782728969519453e-03 -5.792738685020232779e-04 -1.923293004038569357e-02 -1.447218003139387086e-03 -6.332713066734521785e-04 -1.921604997140497970e-02 -1.037107334797465578e-03 -1.426310375536660223e-03 -2.194902203034899968e-02 1.057888937520571043e-03 -1.400310711559054613e-03 -2.185693708887328363e-02 -2.147097061371843211e-06 2.136703629499281474e-03 -2.090403040061075690e-02 4.288924631986468640e-04 1.175689256107408662e-03 -2.189399922417293101e-02 8.485399093443942603e-05 1.238702937646148821e-03 -2.094801412622421602e-02 -3.921057929350487445e-04 1.217689303475613227e-03 -2.193603325141872326e-02 -7.161812409025746621e-06 -1.329182947447672659e-05 -2.058400012232103338e-02 -4.013975108925121529e-05 -2.529948799948070895e-05 -2.112600129547211394e-02 5.384848442788931925e-05 -2.029546421876345401e-05 -2.083699753886958037e-02 -1.014962749747361624e-05 -5.329608046006477113e-05 -2.088399967709416577e-02 -1.314880445887682741e-05 -4.229636166809249082e-05 -2.090399995519352447e-02 -2.149473998649297169e-06 -1.329612926145256103e-05 -2.088699991843510559e-02 5.849208039938882538e-06 -3.229568183405476722e-05 -2.085499932332053608e-02 1.783740126215928816e-05 -1.852916221873152579e-04 -2.056799666573930901e-02 6.862734410154646669e-06 -2.330038964601881648e-05 -2.118699940989093172e-02