-1.412881095330000107e+03
-1.412881096889999981e+03
-1.412881100190000097e+03
-1.412881105220000109e+03
-1.412881112150000035e+03
