-1.412881284170000072e+03
-1.412881285050000088e+03
-1.412881286569999929e+03
-1.412881288970000014e+03
-1.412881292249999888e+03
