3.368986987509993512e-03 1.720530002547838722e-01 -1.400019045608753611e-05 -1.720220000011547234e-01 -1.101301042777553498e-05 -3.599990504524328201e-04 3.579000003767002485e-03 -3.199972907558184485e-05 2.439999802764012641e-04 -1.320000039441422777e-04 2.499998964522371660e-05 -3.719999992963509902e-04 1.247000190170713873e-03 -2.491999905381407383e-03 3.079999956059403994e-04 -6.089996945348250933e-04 -4.049000046196659860e-03 -1.379999925939571462e-04 8.949998744480026696e-04 1.690000068098615384e-03 4.099999933716280947e-04 -2.740000080327893782e-04 1.029999792333585111e-04 -4.399999859044387225e-05 -2.110000095867524590e-04 1.179999839221500604e-04 -1.199999989531779231e-04 -1.800002536653665756e-05 3.399999987015836804e-04 6.299999975973940257e-05 -4.700000862563898476e-05 1.049999963215168542e-04 -1.239999998454488289e-04 -1.300001505462291546e-05 1.729999986602070896e-04 -3.570000001010475380e-04 2.422000090558905968e-03 -1.158999816298103515e-03 5.259999877886078297e-04 7.800001016858677198e-04 -1.363999941275095048e-03 -2.670000029430197276e-04 -1.580000151195425724e-04 2.139999882432019071e-04 1.930000006583775971e-04 -1.787999794808514979e-03 -2.709000135170956062e-03 5.600001257545797419e-05 3.791003435666990152e-03 -4.230799967059656330e-02 4.273700002133468817e-02 1.654000204436820208e-03 -1.223999854664311248e-03 2.026599999209278274e-02 3.819999961424603262e-03 1.928000308313758881e-03 1.942799997698831799e-02 1.722000212071027195e-03 -1.320999849467513910e-03 2.031999999181432690e-02 4.800002639051917657e-04 -2.052999944038574540e-03 1.968099999940116362e-02 -6.349996748667563603e-04 -2.809000027633133494e-03 2.041500000631095088e-02 3.600005834182325572e-05 7.050000229289678667e-04 2.022899999909707688e-02 -2.019998828204719603e-04 -2.099999435983094533e-05 2.094100000113598842e-02 1.478000171997124589e-03 -8.149998682479310790e-04 1.999299999265573974e-02 1.311000262174673563e-03 -1.980999880517586142e-03 2.035399999474224453e-02 -7.059998286725014012e-04 -8.060000334224160607e-04 1.999500000470211258e-02 1.310000391622532980e-03 -3.731999881132604981e-03 1.981399999649679361e-02 4.746499995647135428e-02 2.617003617729756794e-03 2.797099973538599849e-02 3.297200124415339967e-02 -1.643499750610733987e-02 2.119998344158599622e-04 1.284000184233573911e-03 -9.529998825945668224e-04 2.031899999386443598e-02 -1.426399902211975858e-02 -1.229500107010272902e-02 8.697000091016404352e-03 1.529700188715728618e-02 -2.866499889389473657e-02 -5.086800005580443401e-02 3.122699876418700421e-02 1.635800236194973403e-02 2.439998112918514951e-04 3.002999823889498845e-03 8.780002072649828286e-04 -1.987500001745313993e-02 1.788800087417606946e-02 -1.386099867863748065e-02 -3.154700008489374347e-02 1.316000366123354403e-03 -6.319999920712802630e-03 -2.026500000095123044e-02 -1.248000051420168231e-03 -8.090001147636479524e-04 -2.039999999230313055e-02 1.311999838112688299e-03 6.560000789097400779e-04 -2.034000000789731519e-02 2.008999950105115270e-03 -8.279998684199165425e-04 -2.038400001026231811e-02 -4.910000923371284033e-04 -2.150000567863598973e-04 -1.967399999707499306e-02 3.199998484177668241e-04 5.150000038195978996e-04 -2.040500000228077579e-02 -3.789999107681584628e-04 -2.621000048387683249e-03 -1.974599999528992011e-02 2.330000286104808992e-04 -1.872000002821159071e-03 -2.046599999941623241e-02 5.926000000174887726e-03 -1.464999571833580736e-03 -2.004100003124731008e-02 3.807000064699944675e-03 -2.353999732584543224e-03 -2.053200001866273619e-02 -2.534000009966132314e-03 -1.335000211721498005e-03 -2.009699998467918622e-02 3.773003008565953536e-03 -3.955899971162332024e-02 3.027000018688140188e-03
3.365986994554647470e-03 1.719600002545589590e-01 -1.200019034663245857e-05 -1.719350000013004642e-01 -9.013003846944250851e-06 -3.589990509346579497e-04 3.575000003761482931e-03 -3.199972937910175615e-05 2.429999802984806917e-04 -1.310000040308122366e-04 2.599998971885621337e-05 -3.739999993028696960e-04 1.242000190002893675e-03 -2.489999905762555355e-03 3.049999956315419176e-04 -6.049996948318262435e-04 -4.045000045893140835e-03 -1.369999926200320757e-04 8.939998746583339637e-04 1.687000068019988211e-03 4.069999933801445925e-04 -2.730000080603886960e-04 1.029999793039943910e-04 -4.899999859596372803e-05 -2.140000096789422697e-04 1.189999836922626730e-04 -1.229999989376172418e-04 -1.700002522079600205e-05 3.379999987762150136e-04 6.199999975621729329e-05 -4.400000855552859211e-05 1.039999965474087534e-04 -1.249999998610095125e-04 -1.300001498451251272e-05 1.719999986592082441e-04 -3.580000001000486327e-04 2.419000090461195969e-03 -1.157999816528989655e-03 5.219999878041685273e-04 7.790001014644968138e-04 -1.360999941349726790e-03 -2.660000029404965480e-04 -1.590000152818427830e-04 2.159999881655738933e-04 1.910000006618997148e-04 -1.783999795186666168e-03 -2.704000134868434803e-03 5.600001254838417200e-05 3.789003433193847536e-03 -4.227799967078479243e-02 4.270000002131577044e-02 1.652000204261832531e-03 -1.222999854833551388e-03 2.024799999210282267e-02 3.814999961579735883e-03 1.925000307922622358e-03 1.941499997701891592e-02 1.721000211971669908e-03 -1.320999849561123925e-03 2.030199999181984613e-02 4.810002636490539598e-04 -2.050999943981922542e-03 1.966199999939364368e-02 -6.329996751930044548e-04 -2.806000027499852556e-03 2.039700000629691284e-02 3.500005839924622410e-05 7.030000228363566779e-04 2.021199999910459552e-02 -2.039998830490104428e-04 -1.899999452507574225e-05 2.092700000114502967e-02 1.475000171659836701e-03 -8.119998684947993955e-04 1.997299999266930262e-02 1.309000261804266468e-03 -1.977999880694817671e-03 2.032799999475028499e-02 -7.059998289672781910e-04 -8.040000334483868825e-04 1.996900000470011594e-02 1.311000391122944895e-03 -3.726999881078950187e-03 1.979199999648628347e-02 4.742799995665795271e-02 2.613003614910461118e-03 2.794999973559422757e-02 3.294100124331594132e-02 -1.642399750845287623e-02 2.109998345759878438e-04 1.281000184030987084e-03 -9.519998828444318139e-04 2.029599999387999773e-02 -1.424999902306596164e-02 -1.228300106905089520e-02 8.690000090927140625e-03 1.528700188575120820e-02 -2.864399889461807444e-02 -5.083500005577021308e-02 3.120199876520166754e-02 1.634400236005098886e-02 2.359998114438321319e-04 2.998999824058966920e-03 8.770002069794427665e-04 -1.985800001743006152e-02 1.787000087295824088e-02 -1.384299867997285452e-02 -3.152100008481237281e-02 1.313000365682260662e-03 -6.312999920923711983e-03 -2.024900000094166305e-02 -1.245000051385401372e-03 -8.080001145167795386e-04 -2.037999999232068676e-02 1.309999838033185874e-03 6.580000787714648846e-04 -2.032700000788827122e-02 2.003999950123322264e-03 -8.269998687810870301e-04 -2.036700001023571821e-02 -4.900000922377710077e-04 -2.150000566927498546e-04 -1.965599999708051229e-02 3.179998483824232483e-04 5.170000036893138183e-04 -2.038400000227173423e-02 -3.769999105931708398e-04 -2.622000048218442892e-03 -1.972799999529996004e-02 2.360000290123593183e-04 -1.876000002576288638e-03 -2.044799999942879462e-02 5.921000000106425333e-03 -1.462999572196748950e-03 -2.002600003122170791e-02 3.801000064485741091e-03 -2.349999733022342663e-03 -2.051600001863361153e-02 -2.535000010077106611e-03 -1.332000211776152021e-03 -2.007599998467666375e-02 3.770003005594294195e-03 -3.951999971185420762e-02 3.023000018665743076e-03
3.362987008173613703e-03 1.717800002543330706e-01 -1.100019015027512498e-05 -1.717530000012027214e-01 -1.001299007824184940e-05 -3.549990519382727953e-04 3.574000003761482799e-03 -3.199972945473201341e-05 2.429999803040005547e-04 -1.290000038685120017e-04 2.399998987211449119e-05 -3.719999993119116766e-04 1.243000190095083519e-03 -2.490999905683928713e-03 3.079999956270209217e-04 -6.039996949720471704e-04 -4.043000045815512561e-03 -1.349999926275496952e-04 8.939998747450038927e-04 1.686000068021986046e-03 4.089999933811434623e-04 -2.720000082006095144e-04 1.049999793816224072e-04 -4.699999860348133400e-05 -2.140000095111221662e-04 1.169999836952592914e-04 -1.199999989356194722e-04 -1.600002521527614524e-05 3.379999988528441463e-04 6.299999975069744105e-05 -4.600000846885861681e-05 1.029999963981459925e-04 -1.229999998489709437e-04 -1.200001504910306374e-05 1.729999987368362223e-04 -3.560000001065673496e-04 2.419000090547866223e-03 -1.158999816526992037e-03 5.239999878051674513e-04 7.810001015511667914e-04 -1.361999941196468441e-03 -2.640000029505374041e-04 -1.590000152763229471e-04 2.159999881665727688e-04 1.920000006618997120e-04 -1.781999795262296377e-03 -2.703000134717174589e-03 5.600001253634558410e-05 3.787003429014328560e-03 -4.222499967096701029e-02 4.266900002127386321e-02 1.646000204131003661e-03 -1.221999855297321771e-03 2.023799999213494322e-02 3.809999961524537619e-03 1.925000307534482317e-03 1.940499997704651231e-02 1.719000211711659964e-03 -1.317999849718377728e-03 2.029599999182788925e-02 4.790002634591544912e-04 -2.048999944140175028e-03 1.965499999940268500e-02 -6.339996753884238976e-04 -2.804000027583474202e-03 2.038900000630044021e-02 3.600005857645830745e-05 7.000000229029970916e-04 2.020299999910207117e-02 -2.019998830175390408e-04 -1.999999438180623878e-05 2.091900000113498803e-02 1.472000171713387651e-03 -8.129998687256856935e-04 1.996899999268686096e-02 1.308000261647486147e-03 -1.975999880771446646e-03 2.032699999475380895e-02 -7.059998290003973147e-04 -8.040000334543801353e-04 1.996300000470011687e-02 1.311000391030755184e-03 -3.725999881081946789e-03 1.978899999648528474e-02 4.736699995626159759e-02 2.617003610280034531e-03 2.793299973592694441e-02 3.289300124153006488e-02 -1.639899751206414652e-02 2.299998348159690027e-04 1.280000184014427498e-03 -9.519998829230586976e-04 2.029299999388551462e-02 -1.422799902460451620e-02 -1.226200106737804045e-02 8.699000090784727093e-03 1.526500188306658193e-02 -2.860499889623399628e-02 -5.078700005568773101e-02 3.115899876667398150e-02 1.632300235677790895e-02 2.149998117021623318e-04 2.996999824108645665e-03 8.770002068371721311e-04 -1.984900001741901968e-02 1.785300087167969452e-02 -1.382499868124358738e-02 -3.150600008473650876e-02 1.313000365396299086e-03 -6.308999920920715584e-03 -2.024600000094566032e-02 -1.244000051357802223e-03 -8.080001144361549040e-04 -2.037499999232620859e-02 1.309999838012754301e-03 6.590000787814537719e-04 -2.031700000788927082e-02 1.999999950156441508e-03 -8.269998690776148064e-04 -2.036100001021363959e-02 -4.900000922968417031e-04 -2.140000566897532310e-04 -1.965299999708151196e-02 3.169998485723227524e-04 5.150000036206757491e-04 -2.037700000226421587e-02 -3.769999108460131833e-04 -2.618000048209453024e-03 -1.971899999530395478e-02 2.360000289864077466e-04 -1.875000002567298735e-03 -2.043899999942979176e-02 5.913000000069433895e-03 -1.461999572794798856e-03 -2.001900003117854793e-02 3.798000064454270207e-03 -2.348999733241242081e-03 -2.050800001861805000e-02 -2.532000010103058110e-03 -1.331000211540271129e-03 -2.006699998469422402e-02 3.768003001447894126e-03 -3.946699971203044416e-02 2.998000018623842283e-03
3.354987029549377081e-03 1.714970002537230531e-01 -1.600018982343423627e-05 -1.714610000012468938e-01 -1.001296800219763340e-05 -3.629990535500705992e-04 3.564000003615741714e-03 -2.999973021003571959e-05 2.439999803572013497e-04 -1.310000039441422805e-04 2.499998972085397387e-05 -3.719999993018708261e-04 1.240000189624742340e-03 -2.484999905913815640e-03 3.049999956375872121e-04 -6.009996957393893419e-04 -4.033000045590619947e-03 -1.369999926540980332e-04 8.919998751932654976e-04 1.680000067869726835e-03 4.079999933981764168e-04 -2.700000080493490055e-04 1.029999795328829273e-04 -4.699999861252329551e-05 -2.110000095977921850e-04 1.179999839201523095e-04 -1.219999989531779175e-04 -1.900002491827496739e-05 3.339999986249545102e-04 6.199999977125250758e-05 -4.400000847989833484e-05 1.029999965474087561e-04 -1.249999998600106370e-04 -1.300001474658202849e-05 1.689999986612059763e-04 -3.560000000970519577e-04 2.414000090287856098e-03 -1.155999816911136395e-03 5.179999878297701296e-04 7.780001012265664543e-04 -1.357999941427354834e-03 -2.680000029379733329e-04 -1.580000150604718770e-04 2.129999882402052835e-04 1.900000006593764810e-04 -1.774999795786188442e-03 -2.696000134186763743e-03 5.700001249071445954e-05 3.781003422741466193e-03 -4.214599967147474036e-02 4.261500002122807496e-02 1.644000204206634086e-03 -1.222999855448582201e-03 2.023799999214698220e-02 3.802999961832578043e-03 1.921000307006069186e-03 1.940599997708914587e-02 1.718000211451649935e-03 -1.314999849800001491e-03 2.028999999183040900e-02 4.770002633078940365e-04 -2.046999944291435711e-03 1.965499999941172637e-02 -6.319996754215429727e-04 -2.804000027438207157e-03 2.038300000628939790e-02 3.600005863000914661e-05 6.990000228990016738e-04 2.019899999910307331e-02 -2.019998831262884219e-04 -1.899999438779950451e-05 2.091300000113398977e-02 1.471000171464417619e-03 -8.099998688053113797e-04 1.996499999268938272e-02 1.302000261370916652e-03 -1.972999881234217996e-03 2.031799999478393209e-02 -7.049998289468464852e-04 -8.050000333827454042e-04 1.995900000469559565e-02 1.311000390462704369e-03 -3.718999881088938964e-03 1.978199999647829374e-02 4.727999995667508948e-02 2.610003603679225594e-03 2.791199973641416560e-02 3.283200123938424114e-02 -1.636799751664163444e-02 2.659998351217150530e-04 1.277000183662227711e-03 -9.479998831589392513e-04 2.028399999389807890e-02 -1.419999902618006467e-02 -1.224000106524441092e-02 8.715000090608196817e-03 1.523700187929882648e-02 -2.854999889828072068e-02 -5.071600005558811464e-02 3.110599876881980572e-02 1.629200235273354710e-02 1.789998120256798228e-04 2.989999824060614580e-03 8.780002063127547319e-04 -1.984400001738138158e-02 1.781800087004672614e-02 -1.380099868385768237e-02 -3.147300008456729165e-02 1.309000364608525280e-03 -6.297999921215245017e-03 -2.023800000093456744e-02 -1.241000051319163027e-03 -8.080001142022720040e-04 -2.036799999234276820e-02 1.308999838272764281e-03 6.560000787118168029e-04 -2.031100000788075427e-02 1.996999950038299936e-03 -8.249998692985122768e-04 -2.035500001019907926e-02 -4.900000921825724319e-04 -2.150000566827610729e-04 -1.964599999708051270e-02 3.149998487732620124e-04 5.130000034784050651e-04 -2.036800000225117910e-02 -3.739999108940441339e-04 -2.617000047977568068e-03 -1.971399999532151212e-02 2.370000288682663802e-04 -1.873000002485675176e-03 -2.043299999943731099e-02 5.905000000102553041e-03 -1.461999573393847661e-03 -2.001300003113438974e-02 3.790000063980056462e-03 -2.341999733836295106e-03 -2.049800001858088222e-02 -2.528000010285789880e-03 -1.328000211229759132e-03 -2.005899998471929666e-02 3.763002995873911214e-03 -3.939599971244555493e-02 2.961000018580521760e-03
3.336987063680703098e-03 1.710460002523656875e-01 -1.200018927358354837e-05 -1.710120000005700969e-01 -1.801293403122652820e-05 -3.499990560204947017e-04 3.553000003643341440e-03 -2.999973103697417220e-05 2.489999804179197744e-04 -1.290000034903607154e-04 1.899998987211450857e-05 -3.719999993069172993e-04 1.237000189663381607e-03 -2.484999906133714392e-03 3.119999956541467815e-04 -5.949996971653246291e-04 -4.014000045134840516e-03 -1.349999927061958235e-04 8.949998753279664147e-04 1.678000068093620824e-03 4.049999933836145871e-04 -2.680000078445376370e-04 9.999997968014794839e-05 -5.099999862056637715e-05 -2.120000094575713394e-04 1.159999838425243069e-04 -1.239999989456603115e-04 -1.900002476701444947e-05 3.319999986249545158e-04 6.199999977325027205e-05 -4.200000843573949746e-05 1.029999967066602879e-04 -1.169999998710503447e-04 -2.200001542173446586e-05 1.779999979815325112e-04 -3.550000000563631811e-04 2.397000090315455027e-03 -1.155999818191856283e-03 5.229999879236076239e-04 7.800001008925739037e-04 -1.352999941268103303e-03 -2.600000029540074043e-04 -1.640000147044000259e-04 2.079999877824282521e-04 1.860000006974899932e-04 -1.765999796548010795e-03 -2.686000133507090385e-03 5.600001243104699497e-05 3.768003414061699228e-03 -4.203699967253683722e-02 4.253600002119094919e-02 1.649000203659015075e-03 -1.216999855087411977e-03 2.022099999211339136e-02 3.797999962074380918e-03 1.917000306616930497e-03 1.939499997712074153e-02 1.709000211682412933e-03 -1.318999850493659176e-03 2.027699999188408569e-02 4.780002624743135147e-04 -2.036999944229790117e-03 1.964099999939621782e-02 -6.289996763787847811e-04 -2.792000027220306081e-03 2.037400000626085270e-02 3.500005826676969516e-05 7.030000228123836669e-04 2.018799999910459581e-02 -2.029998832311656805e-04 -1.899999448240842265e-05 2.089400000113950800e-02 1.471000171667581060e-03 -8.139998688232912352e-04 1.994699999269337887e-02 1.307000260867456545e-03 -1.966999880865056768e-03 2.030899999475033885e-02 -7.039998293636367610e-04 -8.000000333141072621e-04 1.995200000468507970e-02 1.302000389544101392e-03 -3.706999881771608739e-03 1.977999999651598381e-02 4.714499995784324216e-02 2.592003593434180110e-03 2.787699973717732566e-02 3.275300123618123810e-02 -1.632199752256647748e-02 3.159998355118352493e-04 1.279000183769329370e-03 -9.499998830156697891e-04 2.027599999388903645e-02 -1.416099902759718546e-02 -1.221900106226386784e-02 8.746000090371944605e-03 1.520200187486473418e-02 -2.848399890082689567e-02 -5.061500005546084452e-02 3.101999877264992669e-02 1.623800234618339583e-02 1.329998125543267664e-04 2.988999824709815192e-03 8.700002062451155007e-04 -1.983600001736787050e-02 1.776900086830665235e-02 -1.377499868752261013e-02 -3.143200008432279341e-02 1.309000363556869339e-03 -6.282999921200262822e-03 -2.022300000094955086e-02 -1.238000051944637128e-03 -7.990001139653924757e-04 -2.035799999236831762e-02 1.300999838117631669e-03 6.590000781197600903e-04 -2.029800000783959016e-02 1.994999950412578837e-03 -8.289998694367873991e-04 -2.034200001018404355e-02 -4.840000925110451036e-04 -2.100000562199896641e-04 -1.963699999711862598e-02 3.189998486440808845e-04 5.150000037849216446e-04 -2.036400000227525653e-02 -3.769999113367859703e-04 -2.611000048202460726e-03 -1.971199999531094912e-02 2.320000281892417950e-04 -1.863000002849842180e-03 -2.041899999941969995e-02 5.897999999482598371e-03 -1.452999573912271830e-03 -2.000200003110473926e-02 3.782000063721694359e-03 -2.337999734433346063e-03 -2.049000001854072231e-02 -2.520000010355900270e-03 -1.327000210623718391e-03 -2.005799998476445398e-02 3.747002987276942202e-03 -3.928699971371956562e-02 2.897000018559961563e-03
3.332987106077805756e-03 1.704860002520711681e-01 -4.000188692133299588e-06 -1.704660000008930698e-01 -1.301289272711710224e-05 -3.399990590393301825e-04 3.535000003551151508e-03 -2.899973240131543893e-05 2.459999805162783057e-04 -1.270000037266434754e-04 2.299999003536153100e-05 -3.599999993219525607e-04 1.231000187848255503e-03 -2.460999906587496219e-03 3.119999956632928942e-04 -5.949996981744695452e-04 -4.000000045125850189e-03 -1.259999927201800780e-04 8.799998765049315847e-04 1.662000066953173757e-03 3.989999934823944749e-04 -2.630000085086503774e-04 1.089999800612958359e-04 -4.799999865715554579e-05 -2.140000095332015911e-04 1.169999836912637896e-04 -1.239999989356194881e-04 -1.500002403666344269e-05 3.229999989364654763e-04 7.099999976016072825e-05 -4.800000784008941196e-05 9.599999626486528301e-05 -1.049999998309390857e-04 -8.000014259681364961e-06 1.629999990453505864e-04 -3.500000001186580095e-04 2.390000090136595867e-03 -1.153999818726262738e-03 5.179999879602488738e-04 7.790001004498321160e-04 -1.346999941341735880e-03 -2.580000029544807726e-04 -1.670000147579508228e-04 2.089999875595329793e-04 1.900000007130506956e-04 -1.752999797870716638e-03 -2.668000132516904366e-03 6.300001234130909978e-05 3.761003402511854752e-03 -4.189099967315814549e-02 4.244400002108376230e-02 1.651000203631415456e-03 -1.216999854941145731e-03 2.021599999210235352e-02 3.777999962056173642e-03 1.916000305087344228e-03 1.937799997723213888e-02 1.704000210433689790e-03 -1.302999850878802527e-03 2.026999999189570134e-02 4.740002628083059082e-04 -2.041999944540301946e-03 1.963299999942329579e-02 -6.299996762992824285e-04 -2.794000027308921660e-03 2.036100000626837186e-02 4.000005909705480839e-05 6.910000231765508387e-04 2.017399999908898317e-02 -1.999998833895938097e-04 -1.799999427050080590e-05 2.087900000112195148e-02 1.463000171466642208e-03 -8.119998694373232323e-04 1.993799999273554099e-02 1.299000260092946554e-03 -1.957999881487079707e-03 2.029199999478550898e-02 -7.049998297174841621e-04 -7.970000334127116904e-04 1.992900000468759980e-02 1.312000388705000927e-03 -3.696999881030289380e-03 1.976499999645079872e-02 4.698399995857968636e-02 2.580003581226743368e-03 2.784599973807800818e-02 3.263200123146176718e-02 -1.625499753165480718e-02 3.789998361128130806e-04 1.269000183031810790e-03 -9.419998837959455036e-04 2.025199999393624550e-02 -1.410099903100277274e-02 -1.217200105769908162e-02 8.773000089993805359e-03 1.515800186826826018e-02 -2.838699890402077500e-02 -5.048100005531486190e-02 3.089999877675883924e-02 1.617900233704383864e-02 6.899981327564311360e-05 2.978999824497259932e-03 8.750002055187792050e-04 -1.980600001731766535e-02 1.771500086512186461e-02 -1.372799869153972126e-02 -3.136500008407166334e-02 1.308000362364992314e-03 -6.265999921258911566e-03 -2.020600000096101079e-02 -1.240000051352859031e-03 -8.050001140916811411e-04 -2.033299999235128538e-02 1.300999838228028820e-03 6.590000781397375995e-04 -2.027800000783959097e-02 1.990999949928974264e-03 -8.209998697173330820e-04 -2.032000001016995641e-02 -4.840000921295983848e-04 -2.130000561920210886e-04 -1.960899999711563160e-02 3.109998495124282930e-04 5.060000032138414587e-04 -2.033000000222210876e-02 -3.689999114240326630e-04 -2.607000047558462319e-03 -1.967299999535910074e-02 2.340000281373386733e-04 -1.861000002680601858e-03 -2.040099999943273748e-02 5.878999999177853507e-03 -1.446999575322277043e-03 -1.997500003100585730e-02 3.766000063162458587e-03 -2.328999735621455243e-03 -2.046800001846139222e-02 -2.512000011247480721e-03 -1.312000209974725556e-03 -2.001399998482359874e-02 3.746002976173135827e-03 -3.914499971386112276e-02 2.831000018423641268e-03
