-1.349542576293235284e-02 -1.765345332740261147e-02 1.083457008426933349e-01 4.508506148779583720e-04 9.090519061308048512e-04 3.686005474090362465e-03 1.245153204568470208e-02 -1.658119951720451665e-02 -1.338425789074402204e-02 -9.871628484206087031e-04 -3.957943607292572358e-03 3.923015920460936820e-03 4.085169303373483682e-05 -1.768948878438836433e-03 3.608026746664478365e-03 9.579001595006517546e-04 -1.704966453851450162e-03 2.419063181413382956e-03 1.130859250459517176e-03 -1.944952411490227101e-03 3.419073627854259806e-03 -1.696094887294480064e-03 -1.102965935397830829e-03 2.308946573363167797e-03 5.673895930668097038e-04 -4.201445120767464264e-02 3.873961881288465192e-02 -4.711515849657039301e-05 4.013160610651540403e-08 2.827998083491092916e-03 5.887325083902488176e-05 -3.295592489427608081e-05 3.112002867503500456e-03 -1.812741003343333501e-05 -4.495563775763652915e-05 3.127999902116252156e-03 2.869316610478609725e-06 -6.495451997491050221e-05 3.208001040735027152e-03 -7.127037261427419677e-06 1.504424020099416768e-05 3.119999499387242966e-03 -6.131930056627400985e-06 -4.495407341830508300e-05 3.239000390663280063e-03 9.087350218968552932e-05 -2.395603501783255220e-05 3.106004042976442166e-03 -3.912459868592685645e-05 9.043414589754231994e-06 3.059998281442363743e-03 -5.912631993962946624e-05 -5.695598845405920303e-05 3.100998402719616978e-03 3.189029335400891214e-05 4.603818409798956081e-05 2.695000648384848329e-03 -2.212717743369665524e-05 -7.955705518358740285e-06 3.122999214660247477e-03 -1.512362453996613393e-05 5.043055531161018200e-06 3.035999315476155345e-03 3.987555002758781371e-05 -8.956703976308933419e-06 3.056001753593063416e-03 -8.412507870435694066e-05 -3.195639421553647956e-05 3.070997030282140300e-03 3.087499010476627058e-05 -4.795651261407216136e-05 3.069001940026093878e-03 7.787300573963404674e-05 1.804415946822311346e-05 3.119002918127227082e-03 -4.013097385977036305e-05 -1.995437288824942137e-05 3.215998651731636401e-03 -3.813456588967720386e-05 2.104688736541232531e-05 3.304998151802302463e-03 -1.378856821807225054e-03 4.709513581758780062e-04 -3.507062828520181308e-03 9.601243512712702346e-04 3.995596351041393648e-05 -3.052961472255403055e-03 4.181500949683865614e-04 1.348947781840582807e-03 -3.660002101084820509e-03 1.811756848504376711e-04 -7.600615173218148611e-04 -4.328981850401481847e-03 -4.087492925253476535e-05 -4.460436354619143969e-04 -3.079995343409226271e-03 -1.408514738908042533e-04 -2.900516810547685621e-04 -3.653001626692779173e-03 1.751337977149914802e-04 2.979533597768395034e-04 -3.279997095775484973e-03 -1.150882173557091215e-03 -5.460402710341162895e-04 -2.904039125941228119e-03 9.851085857170869750e-04 -5.920387393275157928e-04 -2.677951494236212749e-03 -5.752515781437432703e-03 3.120836766765310629e-03 -1.183127850485817673e-02 1.504171354014198058e-03 8.339393889715420545e-04 -4.191950576197775967e-03 4.255432057252182126e-03 3.549847205674756812e-03 -1.054187705403897973e-02 -9.785955285936676074e-04 -3.494141011048160304e-03 -9.999990319311705816e-03 -1.184750816250354456e-03 -2.843086605571520757e-03 -6.174007941087695205e-03 2.187232175444836068e-03 7.109176442157041486e-04 -5.687921018600878079e-03 -1.338812382209721109e-04 -1.378041620191350954e-03 -2.942985916900183775e-03 6.020886536298873833e-04 -1.293031690738726458e-03 -2.201957152152489005e-03 -4.637747169653752208e-04 1.749219742620111012e-04 -5.529021370443775764e-03 -2.186837609753230994e-05 6.995420876204004558e-05 -3.231001885298634586e-03 -5.867279782416352543e-06 6.595381343403001009e-05 -3.258001177028864177e-03 3.313043668390245412e-05 6.195457685412350654e-05 -3.201999532256674143e-03 2.712757758578838397e-05 -1.044440173668367487e-06 -3.132998883446824496e-03 5.313017745437813131e-05 4.295464626288798767e-05 -3.195998448467723269e-03 -6.887168071517931812e-05 6.195539396509029944e-05 -3.150003685831827271e-03 -1.486978720343442433e-05 1.399547136746432492e-04 -3.195002592729585204e-03 3.130315304856595473e-06 1.095462870474030092e-05 -3.200000030818129886e-03 2.013035598661548951e-05 -4.104541295654288042e-05 -3.201998601318101385e-03 -1.260031800888465516e-04 -1.089988238190483003e-04 7.599641447832775336e-05 -1.199211486011202015e-05 3.449973581134409641e-04 -1.870053798047746694e-04 1.220015083618724406e-04 4.699995074488173656e-04 -2.800169557896460003e-05 -1.989984000185492715e-04 -8.900042546440263633e-05 -4.100684159031009582e-05 5.200598594533418578e-05 5.199788932083465614e-05 -1.459986196237208697e-04 1.589866308704445199e-04 -6.799548835044984317e-05 3.270074383992646258e-04 1.140094048273627254e-04 -5.400337850464222492e-05 -2.319945920080786423e-04 1.800379801820199249e-05 6.599868154224222585e-05 -9.200020267154568375e-05 -1.129927938597614207e-04 4.999759318154112724e-05 -1.760053101807402165e-04 -1.566037986652526982e-03 1.409014836713485706e-03 9.599162537860116313e-04 -6.780338685183739077e-03 1.799123721479450964e-03 8.351698399068945705e-03 8.353982636372310130e-03 2.794000263910220543e-03 4.803005688728937436e-04 -1.200714973612475658e-03 -1.897098814398552992e-03 -7.036022003984239437e-03 -5.140281871800011322e-04 -1.985990325061596541e-03 6.540072259128145663e-04 1.668925139356039001e-03 -1.454632737968674164e-02 -2.299872582649310770e-02 7.359916578359844376e-04 -9.599769818303412845e-05 2.030313314230062279e-04 -9.039961611299365514e-04 3.769994743223223995e-04 -8.704215658536150967e-05 1.580006681480613650e-04 2.256000258859651789e-03 2.697444883499526577e-05 1.129964642453581801e-04 9.001144988723676390e-06 8.700447377542990782e-05 -1.590040437434809488e-04 3.600154227229590418e-05 9.999301489222780766e-05 4.599394120097557417e-05 6.300209064513018653e-05 1.500009798206131681e-04 2.999261699088146124e-05 3.600255686524221708e-05 1.820007110568617797e-04 -4.056437512714425003e-09 -3.199859639503307101e-05 9.900045359640070929e-05 -3.900281675777556543e-05 -8.998991194362553579e-06 6.899853942253535892e-05 -3.600837124954854368e-05 -2.999706536106458069e-05 2.049989591916961409e-04 -4.300267426898989796e-05 -8.699905894349145704e-05 6.399948240932932923e-05 7.999325273643795667e-05 -1.399977516449346562e-04 1.630052424034502062e-04 2.998191613513258996e-02 -1.568899856382266478e-02 1.758443325855911206e-03 -2.407889857123417325e-05 1.767376140563968424e-03 2.652897398665106377e-02 -2.935976713437642507e-02 1.130819727596159979e-01 -3.544798810744544462e-03 -5.746864865185850012e-03 2.668296472847295903e-02 -2.805612325386439444e-03 -2.959119474348384212e-04 -1.148682569084640351e-03 2.237300425680123842e-02 6.019097805252985114e-03 -8.079692801324311890e-03 2.200035967540137083e-02 -1.209075129013082979e-04 -1.101684237315604794e-03 2.226501071669569759e-02 -5.355753728858528642e-03 -8.042735572810865222e-03 1.835489595453105791e-02 5.499245578703211915e-03 -7.615743717832301751e-03 1.838033192544168831e-02 2.211538708591771177e-04 -3.970558758905717682e-05 2.077800958782429278e-02 -4.685807652974760421e-05 4.329880469517741968e-05 2.107299749760759358e-02 -1.648450120694148016e-04 8.629436018987268991e-05 2.075299208320080524e-02 2.915155784122009514e-05 1.262954133971918680e-04 2.083799941585636264e-02 2.151344022995873019e-06 9.295477083269101698e-06 2.084099997518892161e-02 -1.185528802726260785e-05 -8.770222931995252122e-05 2.100200078019039823e-02 4.314382397931896298e-05 7.829808204340826924e-05 2.102700066630523376e-02 -1.847376414010775613e-06 -2.070497347117355449e-05 2.080900023766817097e-02 -3.184273107907353162e-05 -1.670656625036352920e-05 2.069499895943755635e-02 6.914723353828668465e-05 6.429687075210907066e-05 2.094300192361413585e-02 -2.884206544379877628e-05 1.293204554107584370e-06 2.067899882641523884e-02 -4.585794802452511880e-05 2.072988038956481759e-04 2.107299521317523502e-02 -1.386327866316524861e-05 4.300579440247048084e-06 2.119999939421039412e-02 -7.184904747754020582e-05 -2.270433737163112485e-05 2.084999741552600455e-02 9.314485442108107508e-05 -6.170235407055609097e-05 2.099900468726070488e-02 4.315256720631910678e-05 6.329503381891736220e-05 2.081200087917154870e-02 -6.784809447147563703e-05 -5.370468076757930483e-05 2.082599801794238550e-02 -9.850016209814930782e-06 -1.170404565141300203e-05 2.087399978424106517e-02 -2.411081670968469402e-03 9.168217929201284374e-05 -2.255009950208469033e-02 -5.591374856634457897e-04 5.787002944916381326e-04 -2.117003099292207730e-02 2.960803922622691053e-03 3.297178693288221321e-04 -1.973588412659608646e-02 5.991472114928797970e-05 7.386816764006181712e-04 -2.244900805396843335e-02 -7.221310744249542519e-04 -1.217302299835640658e-03 -2.136201216697913505e-02 6.728712050848489673e-04 -5.933040160011807508e-04 -2.140596420827533056e-02 -1.378161158071405934e-03 1.967090738585382801e-04 -2.059605892792708282e-02 8.968556324994128755e-04 -1.992986620918476713e-04 -2.101596067320602931e-02 5.049904077533266290e-04 -3.643346219047305899e-03 -2.439192780442396222e-02 4.700100184291354771e-04 -1.118352330882382015e-03 -2.482496502810398881e-02 -9.519812755538513752e-05 -1.770279595845267694e-03 -1.972597879622311340e-02 -3.721711180048498948e-04 -2.483288977250914902e-03 -2.040297996652418178e-02 1.238862473766543654e-03 7.366989433598030747e-04 -2.116596001692211404e-02 -3.514908535296344460e-05 2.041704321704113957e-03 -2.085703039755500837e-02 -1.211037489986396386e-03 1.442666225275139689e-03 -2.360906979023735114e-02 1.113822187763604784e-03 9.797131339384164590e-04 -2.017196855314904586e-02 8.868296049867279400e-06 2.146977372950077830e-04 -2.131900270263422867e-02 -1.115158186376846673e-03 3.517078754692480797e-04 -2.066605041583150643e-02 6.850552660365980818e-06 7.270387786070760033e-05 -2.088600077123603169e-02 2.284460573738167447e-05 -1.372941213991188836e-04 -2.074399714250408852e-02 -3.915303937969229951e-05 9.705147353078507865e-06 -2.079900175127696524e-02 2.984400902329847012e-05 -1.192939142149761537e-04 -2.072899711267182227e-02 -9.315298534327801799e-05 -7.729485288974456963e-05 -2.080200271673471324e-02 2.884881875970881390e-05 -1.652956005849909012e-04 -2.084799650110492897e-02 2.238459345454403245e-04 -2.947041290183084132e-07 -2.077399089993872336e-02 -1.301531771382066760e-04 -1.029473885886898467e-05 -2.079600517332193255e-02 -9.615266268338236802e-05 -2.929494979016258974e-05 -2.080900351942340659e-02
-1.345341763601281930e-02 -1.762345618167274891e-02 1.081467021278211538e-01 4.518523204509684778e-04 9.030513098810084242e-04 3.644005599916837201e-03 1.240653197916824144e-02 -1.656219945361601595e-02 -1.338225999256168960e-02 -9.841628883603635840e-04 -3.956943595463865808e-03 3.924016028444797521e-03 4.785313079450522871e-05 -1.752949380144260211e-03 3.573026804898756133e-03 9.469004750900397683e-04 -1.717966558659544648e-03 2.411062917802382112e-03 1.137859101674674068e-03 -1.926952360261833391e-03 3.423073657696756433e-03 -1.678093906091381688e-03 -1.097966289759354447e-03 2.284947235471981170e-03 5.353926260498300185e-04 -4.193745221760559333e-02 3.866661641819748446e-02 -5.011444508331785265e-05 2.703989292985189508e-05 2.810997578544729460e-03 2.687284679145951922e-05 -2.895575806084870556e-05 3.122001507715914566e-03 1.487237068850798141e-05 -1.295557853296345735e-05 3.134000792210330389e-03 1.587033853856413087e-05 -5.995488459924867847e-05 3.183001499240514353e-03 -4.312682892592804059e-05 2.104419749927409348e-05 3.114997948374670454e-03 1.886902060628063016e-05 -2.695441908431693855e-05 3.216001153506196485e-03 9.687434008373265381e-05 -4.595633744729426764e-05 3.085004599231866949e-03 -4.812500512827020180e-05 -4.195645075798070799e-05 3.068998638012274821e-03 -5.512592213742880569e-05 -6.895613336278772713e-05 3.090998735745479047e-03 -8.111495220462950297e-06 -1.961174932124632509e-06 2.737999700043477688e-03 3.870799039914166946e-06 8.044983011896381453e-06 3.173000046511681264e-03 -4.124245548145037338e-06 -7.956740413555700564e-06 3.050999947702498494e-03 2.873097404993089351e-06 -2.095582433651962967e-05 3.116000416998957346e-03 -3.212709676729612026e-05 -8.955726043887096967e-06 3.120998821631359131e-03 2.087391337401108658e-05 -1.895612198655932846e-05 3.096001121637342694e-03 1.387193529727304927e-05 3.044578204168710076e-06 3.145000524635037896e-03 -1.013217670408901251e-05 4.046028953307325775e-06 3.245999533062958638e-03 -1.313407255889114297e-05 2.704669765635919843e-05 3.292999084768154314e-03 -1.372856600185811196e-03 4.939512825866056601e-04 -3.512062910278986125e-03 9.311248148960325679e-04 5.995583025953723919e-05 -3.063962936705128762e-03 4.381520307713367341e-04 1.376947099821454815e-03 -3.707001683601483712e-03 2.081758422263894925e-04 -7.670615951731868647e-04 -4.332980651690438757e-03 -4.587514147189618622e-05 -4.570435606568479009e-04 -3.074995391062731748e-03 -1.608506101172676409e-04 -2.790519631296569693e-04 -3.674002597045678085e-03 1.601342025851121601e-04 2.949532297441306546e-04 -3.289997664045665477e-03 -1.157881388910278041e-03 -5.840405491052195986e-04 -2.924038872213582507e-03 1.007110194943103623e-03 -6.170393236627256346e-04 -2.717950243896217685e-03 -5.759516311611103355e-03 3.067836942385170768e-03 -1.181927803849382522e-02 1.519172395504980819e-03 8.119390086061381746e-04 -4.217949653450043558e-03 4.251431303123894868e-03 3.522847464009780209e-03 -1.052387683413950545e-02 -1.016595518375694712e-03 -3.481140981295617002e-03 -9.999992051014972710e-03 -1.146750100520386702e-03 -2.813086876350920015e-03 -6.191006819012453977e-03 2.187231224786174467e-03 7.449179844793652134e-04 -5.663921500667145476e-03 -1.638823862153452823e-04 -1.388041199722187804e-03 -2.914986996774111220e-03 6.150885956846298408e-04 -1.263031672565110121e-03 -2.199957048116187898e-03 -4.437763465991370875e-04 1.739225257140033284e-04 -5.489020541886173790e-03 -4.986876293477987061e-05 4.395435828871179564e-05 -3.222002656868982236e-03 1.613190499896313088e-05 6.495407976412264977e-05 -3.238000267010968016e-03 4.212874753266021007e-05 3.695515109928828809e-05 -3.160998811363040922e-03 2.312736144773013506e-05 -1.704436615109394311e-05 -3.127998819490661851e-03 4.312978200787432226e-05 5.795479586929101052e-05 -3.185999068351982617e-03 -5.787181150613112117e-05 5.095542788662760800e-05 -3.147003081949855535e-03 -3.586969947574910293e-05 1.479547017611652915e-04 -3.197003561287707629e-03 3.512946875998390877e-05 2.195490138145701355e-05 -3.178998883725814035e-03 7.129449193869936635e-06 -3.045076692130333825e-06 -3.178999669465558571e-03 -1.400065481533535735e-04 -9.399763610159914346e-05 1.589956316428034282e-04 4.007918795296204756e-06 3.359973314086144068e-04 -1.880046006703560088e-04 1.300033454944786839e-04 4.759988631834520078e-04 -7.300145483690453701e-05 -1.950029411666109555e-04 -6.399884068582686728e-05 7.099296674489267609e-05 1.100266645979583585e-05 7.699908400037655933e-05 -6.400064369893039117e-05 1.899858093757715279e-04 -7.699522906651609839e-05 3.470088283269284735e-04 1.390059944175407855e-04 -9.300222131859931310e-05 -1.489930211311821598e-04 2.600360535241423752e-05 2.799873199328526251e-05 -8.799933815344339316e-05 -1.569933615643075121e-04 5.299782612220462863e-05 -1.620071444444941354e-04 -1.568036167533816763e-03 1.392014200280400349e-03 9.149164134081202299e-04 -6.733335416610473564e-03 1.761122536281037971e-03 8.270700851779258858e-03 8.317980709960530461e-03 2.726000944283524328e-03 5.263000669674076926e-04 -1.167713304085405204e-03 -1.897099421527036114e-03 -7.077020660158039184e-03 -5.080257133752108479e-04 -1.946991180431227163e-03 5.940069173609219310e-04 1.640919794812728235e-03 -1.445532547212524145e-02 -2.286572825697705258e-02 7.229927306929296573e-04 -7.799805662857815011e-05 1.770305468763688468e-04 -8.679966130069026193e-04 3.719996020907139021e-04 -7.604061975612955127e-05 1.419976046954490845e-04 2.244001334723451889e-03 1.019739673648191295e-04 5.999606332452285746e-05 -3.499868590788607760e-05 9.600293938354690856e-05 -1.010058558814573538e-04 1.000212068413593988e-05 1.439957452825403866e-04 4.199183309851310675e-05 2.300281684871079398e-05 2.010013840003378705e-04 -1.007296840286191521e-06 4.200255278192744572e-05 1.799993636457555661e-04 2.499527949611762275e-05 4.001625048954989159e-06 1.160009612023906313e-04 -2.800305247263067446e-05 2.001085258342984695e-06 7.499883139092191643e-05 -4.400662964967470332e-05 -4.199766874108621382e-05 1.619988035980215709e-04 -2.800288412923753804e-05 -4.299898562609731693e-05 6.999946939492592826e-05 7.199401549398585728e-05 -1.019980005851127907e-04 1.450043778983622976e-04 2.989191615954797307e-02 -1.555399846501102738e-02 1.760437746979383409e-03 -6.306902685698811181e-05 1.789372740072122953e-03 2.628697208685203471e-02 -2.923976936342691582e-02 1.125239732895357003e-01 -3.500786013091298100e-03 -5.660866469116352176e-03 2.650696517155366749e-02 -2.769606328140338664e-03 -2.729046592321073537e-04 -1.201685139091374348e-03 2.219300594496960780e-02 5.910104040333351468e-03 -8.073694885181025016e-03 2.184735515190424499e-02 -8.390229358733193295e-05 -1.040686066872623409e-03 2.213801135864167796e-02 -5.341749862716077199e-03 -7.993736916490516708e-03 1.826089582999994645e-02 5.443248437044193727e-03 -7.605744666431200375e-03 1.831032950336146381e-02 1.931565662685946153e-04 -8.170651557322006924e-05 2.071100904316880778e-02 -4.285555497527844255e-05 3.929792254028351833e-05 2.101099771725968568e-02 -1.448420942898447376e-04 6.829332373049803420e-05 2.068099315288450188e-02 2.151352692266866388e-06 1.242955054272665153e-04 2.084299834474426585e-02 2.715256016742811915e-05 5.429504634776314610e-05 2.081200035523780162e-02 -2.185353699786679965e-05 -3.570281696263841983e-05 2.095999963577722947e-02 -2.085468183369480763e-05 6.229760757834679544e-05 2.098999828704937315e-02 4.015356013047468361e-05 -2.070533244630545528e-05 2.078600194796529493e-02 -1.783919934763295435e-05 -3.070781067909494861e-05 2.060799972809903430e-02 -2.984547423992802814e-05 1.629439627040207852e-05 2.076299857294985202e-02 -3.835193829027186891e-06 -1.170921106690214998e-05 2.051000002890454588e-02 3.314964633412373791e-05 1.812960907938400640e-04 2.088599879891815669e-02 -3.685381419557101136e-05 -2.570270597413665210e-05 2.096699888318032112e-02 -7.684391192112954773e-05 3.529389431308218271e-05 2.072499638972766581e-02 1.161514770360118001e-04 -2.870466888564329305e-05 2.083700515612468135e-02 -8.393943216431389930e-07 3.229226107039144907e-05 2.061399952714882897e-02 7.160130292428168848e-06 -5.470760340685356629e-05 2.062400108637176335e-02 -1.884366764419467236e-05 3.529376383253296588e-05 2.071899875154261175e-02 -2.325087744688566008e-03 1.356842386192122095e-04 -2.240009662405252275e-02 -5.341485883691813067e-04 5.967041454530537742e-04 -2.089703023035431942e-02 2.848793105860036954e-03 3.487217283160428077e-04 -1.946988895695618907e-02 7.290816900113136789e-05 7.436839488462174998e-04 -2.228800759563584824e-02 -6.991390361643167557e-04 -1.244299553171734907e-03 -2.116701084778121675e-02 6.338630092333432829e-04 -6.593011498986043207e-04 -2.120596486084205465e-02 -1.318167055590810247e-03 2.057110826581892899e-04 -2.045105661241067990e-02 8.578443466154698008e-04 -1.552946901323223232e-04 -2.073796288539924218e-02 4.669826653402272035e-04 -3.650343495511627727e-03 -2.420192925274858645e-02 4.389992234893950974e-04 -1.175348563665778870e-03 -2.456096548256327117e-02 -1.132072944308994226e-04 -1.776276391746775237e-03 -1.950097944434101352e-02 -3.241799340940328773e-04 -2.457285938255757401e-03 -2.018597838074689954e-02 1.171853776017394268e-03 7.577020298666360372e-04 -2.095196304315110475e-02 -9.158596812473801164e-06 2.063707618948110774e-03 -2.062302965094119783e-02 -1.164049314690488628e-03 1.526670328382098360e-03 -2.331706906756092143e-02 1.045811234672632895e-03 9.287169868364537027e-04 -1.990397059935011814e-02 7.859728219251058324e-06 1.937007154171472819e-04 -2.110900244581725982e-02 -1.052169885063784349e-03 3.367118951692716711e-04 -2.037904763801822935e-02 -1.215358050162723158e-05 4.670532469758735381e-05 -2.078500117640424624e-02 5.842654285454876237e-06 -1.332934275544100748e-04 -2.069599789151423466e-02 1.844831349019404896e-06 -5.294147502892828207e-06 -2.074699986910395408e-02 3.584029010113175186e-05 -1.362926287318612405e-04 -2.063799662740932808e-02 -7.515563142923449558e-05 -7.629394542707757757e-05 -2.073700199799757837e-02 2.284722675903865663e-05 -1.182950287799375581e-04 -2.080799741182210241e-02 1.768445132728891733e-04 4.705828894134676442e-06 -2.073899288474008104e-02 -1.181554614330675466e-04 -1.529395429777845815e-05 -2.074000461383496141e-02 -5.715468857127421282e-05 -1.629427143855505724e-05 -2.075900211566761647e-02