1.000639449368574511e-02 1.787275295619038085e+00 6.016695073438500074e+00 3.095656405063891281e+00 1.797272877722827955e+00 6.016690581955233874e+00 6.191296399547133511e+00 1.787270452148280508e+00 6.016696780828531210e+00 -1.547811507604180514e+00 4.468176516533623577e+00 6.016693628516041059e+00 1.547828494722631953e+00 4.468184090958066790e+00 6.016699685469926173e+00 4.643478497448808362e+00 4.468181665232902944e+00 6.016695742972805405e+00 -3.095639409702497069e+00 7.149087729626076637e+00 6.016692590253107653e+00 1.059261647140256612e-05 7.149085304042691824e+00 6.016698647755977625e+00 3.095660595350484101e+00 7.149092878317525823e+00 6.016694705117080488e+00 8.876963787847873966e-06 1.787268890015040190e+00 1.332296467321390132e+01 3.095658879689964671e+00 1.787266464289876566e+00 1.332296073071678144e+01 6.191308882008931924e+00 1.787264038706491087e+00 1.332296678821965052e+01 -1.547809025134536665e+00 4.468180103099664180e+00 1.332296363535817640e+01 1.547840977591640188e+00 4.468177677374499446e+00 1.332295969286105652e+01 4.643480979910616036e+00 4.468175251798944814e+00 1.332296574995671712e+01 -3.095626927232861370e+00 7.149091316184286171e+00 1.332296259750245149e+01 1.307508611523934706e-05 7.149088890608731539e+00 1.332296865459811208e+01 3.095663077812292219e+00 7.149086464883567693e+00 1.332296471210099220e+01 2.135942558765566932e-05 1.787262476573250991e+00 2.062923468060501975e+01 3.095661362159608299e+00 1.787270050855916281e+00 2.062923073755891679e+01 6.191311364478575996e+00 1.787267625272530802e+00 2.062923679506178587e+01 -1.547806542672728769e+00 4.468173689665704273e+00 2.062923364234208634e+01 1.547843460053448084e+00 4.468171263940540427e+00 2.062922969984496646e+01 4.643493462380252623e+00 4.468178838357153460e+00 2.062923575720606095e+01 -3.095624444771053696e+00 7.149084902750327153e+00 2.062923260448636498e+01 2.555795512344716974e-05 7.149082477025164195e+00 2.062922866198924154e+01 3.095665560274099448e+00 7.149080051449607787e+00 2.062923471908490569e+01 1.547828188595516297e+00 8.936370704764997619e-01 1.289570360259301163e+00 4.643468190914492588e+00 8.936346449009441306e-01 1.289576417354963533e+00 7.739118193640669219e+00 8.936322191757807287e-01 1.289572474857843210e+00 2.864971998821980313e-07 3.574548283568952822e+00 1.289569321996367535e+00 3.095650288816168771e+00 3.574545857985567565e+00 1.289575379499238394e+00 6.191290291542353330e+00 3.574543432268233900e+00 1.289571436594909581e+00 -1.547817616016168962e+00 6.255449496795354669e+00 1.289578284282410614e+00 1.547822386717851995e+00 6.255457071078020626e+00 1.289574341236304544e+00 4.643472389444028181e+00 6.255454645352856780e+00 1.289570398739184443e+00 1.547830671057324192e+00 8.936306570425404106e-01 8.595840367243212654e+00 4.643480673384128288e+00 8.936382314591538867e-01 8.595846424604307146e+00 7.739120676110313291e+00 8.936358057418203327e-01 8.595842481699978777e+00 2.768959007984024577e-06 3.574541870134993360e+00 8.595839328980281024e+00 3.095652771277976445e+00 3.574539444551607659e+00 8.595845386483150108e+00 6.191302774011989030e+00 3.574547018826443434e+00 8.595841443844252083e+00 -1.547815133139316623e+00 6.255453083219616239e+00 8.595838291124554331e+00 1.547834869179651740e+00 6.255450657636231426e+00 8.595844348627425191e+00 4.643474871905836743e+00 6.255448231918896873e+00 8.595840405723096822e+00 1.547833153526968264e+00 8.936342436085802365e-01 1.590211037408534800e+01 4.643483156253145339e+00 8.936318178834166126e-01 1.590210643158822812e+01 7.739133158572113480e+00 8.936293923000311334e-01 1.590211248909109898e+01 1.525142864352679439e-05 3.574545456693203338e+00 1.590210933622962308e+01 3.095665253747611700e+00 3.574543031109817637e+00 1.590211539373249394e+01 6.191305256473797591e+00 3.574540605392484416e+00 1.590211145082816557e+01 -1.547812650677508506e+00 6.255446669785656333e+00 1.590210829810846782e+01 1.547837351649295590e+00 6.255454244202271141e+00 1.590211435546955876e+01 4.643487354375472442e+00 6.255451818477107295e+00 1.590211041297244066e+01 -1.547806256175528805e+00 8.042721973234655763e+00 2.191880296433845743e+01 1.547843746143439780e+00 8.042719547651271839e+00 2.191880902184132651e+01 4.643493748869616411e+00 8.042717121926107993e+00 2.191880507934420663e+01 1.547839548021112233e+00 2.680899547057580712e+00 2.191880504045711575e+01 4.643489550347915440e+00 2.680907121474194188e+00 2.191881109781820669e+01 7.739139553074092959e+00 2.680904695749030786e+00 2.191880715532108681e+01 2.164592278753783321e-05 5.361810760142204479e+00 2.191880400260139083e+01 3.095671648241756113e+00 5.361808334558817890e+00 2.191881006010425992e+01 6.191311650975777070e+00 5.361815908841483846e+00 2.191880611705815340e+01 -1.547811221514189040e+00 8.042724800244354100e+00 7.306272950512399333e+00 1.547828781211995963e+00 8.042722374527020435e+00 7.306269007608070964e+00 4.643478783938173038e+00 8.042719948801858365e+00 7.306265065110951085e+00 1.547834583089660265e+00 2.680902373925500459e+00 7.306265026631066917e+00 4.643474585416472955e+00 2.680909948349943672e+00 7.306271083584952031e+00 7.739124588142649586e+00 2.680907522624780270e+00 7.306267141087832151e+00 6.680991343893380585e-06 5.361813587017953964e+00 7.306263988368133511e+00 3.095656683310312296e+00 5.361811161434568263e+00 7.306270045871004370e+00 6.191306686044325325e+00 5.361818735709403150e+00 7.306266103232107234e+00 -1.547808738645172655e+00 8.042718386668617825e+00 1.461253295749632031e+01 1.547841263681631441e+00 8.042725961085229969e+00 1.461253901485741480e+01 4.643481266407816221e+00 8.042723535367896304e+00 1.461253507195308643e+01 1.547837065559304115e+00 2.680905960491539730e+00 1.461253503347320226e+01 4.643487067878272256e+00 2.680903534908154029e+00 1.461254109097607312e+01 7.739127070604457259e+00 2.680901109190820808e+00 1.461253714807174298e+01 1.916346097943605976e-05 5.361817173576162610e+00 1.461253399561747734e+01 3.095659165779955924e+00 5.361814748000607089e+00 1.461254005271313794e+01 6.191309168506132998e+00 5.361812322275444131e+00 1.461253611021601984e+01 1.547828820035759056e+00 8.936390760720051007e-01 4.957680363666447931e+00 4.643478822761935909e+00 8.936366503468416989e-01 4.957676421169327163e+00 7.739118825080913311e+00 8.936342247712860676e-01 4.957682478264989534e+00 1.091792959860117921e-05 3.574540289156629136e+00 4.957679325952500271e+00 3.095650920256410643e+00 3.574547863581072349e+00 4.957685382906384497e+00 6.191300922982587274e+00 3.574545437855908947e+00 4.957681440409265505e+00 -1.547816984168717713e+00 6.255451502249082196e+00 4.957678287689566865e+00 1.547833018150250650e+00 6.255449076665697383e+00 4.957684345192436837e+00 4.643483020884263013e+00 6.255456650940532271e+00 4.957680402553539700e+00 1.547831302497567174e+00 8.936326626380459714e-01 1.226395037065035964e+01 4.643481305223744471e+00 8.936302369128823475e-01 1.226394642815323976e+01 7.739131307542712612e+00 8.936278113294968684e-01 1.226395248565611062e+01 1.340039924243785172e-05 3.574543875722668851e+00 1.226394933279463473e+01 3.095663403125418434e+00 3.574541449997505449e+00 1.226394539029751662e+01 6.191303405444395835e+00 3.574539024421949929e+00 1.226395144739317722e+01 -1.547804501699082236e+00 6.255455088807291730e+00 1.226394829493890981e+01 1.547835500619894500e+00 6.255452663231736210e+00 1.226395435203457218e+01 4.643485503346071575e+00 6.255450237506573252e+00 1.226395040953745230e+01 1.547843784959367142e+00 8.936262491962565502e-01 1.957022037804148340e+01 4.643483787693386766e+00 8.936338234789220625e-01 1.957021643499537333e+01 7.739133790012355796e+00 8.936313978955364723e-01 1.957022249249824597e+01 1.588286105053962347e-05 3.574537462288709833e+00 1.957021933977854644e+01 3.095665885587227439e+00 3.574535036563546431e+00 1.957021539728142656e+01 6.191315887914031535e+00 3.574542610980159463e+00 1.957022145464252105e+01 -1.547802019237273896e+00 6.255448675373332712e+00 1.957021830192282152e+01 1.547847983488902734e+00 6.255446249648168866e+00 1.957021435942570164e+01 4.643487985807879248e+00 6.255443824072613346e+00 1.957022041652136224e+01 -4.236938254707785071e-06 1.787273297861323940e+00 2.348584662415633240e+00 3.095645765380713677e+00 1.787270872277938460e+00 2.348590719918504099e+00 6.191295768106890307e+00 1.787268446552775059e+00 2.348586777421384220e+00 -1.547822139036579392e+00 4.468184510945946819e+00 2.348583624559908323e+00 1.547827863282388972e+00 4.468182085362561118e+00 2.348589682062779183e+00 4.643467866008573530e+00 4.468179659645227453e+00 2.348585739158450814e+00 -3.095640041549947874e+00 7.149085724172349110e+00 2.348592586845951402e+00 -3.881592731637944001e-08 7.149093298455015066e+00 2.348588643799845332e+00 3.095649963910249713e+00 7.149090872729852109e+00 2.348584701302725453e+00 8.245523545099998428e-06 1.787266884419534962e+00 9.654854669806754330e+00 3.095658247850349376e+00 1.787274458836147994e+00 9.654860727167847045e+00 6.191298250576534379e+00 1.787272033118814774e+00 9.654856784263518676e+00 -1.547819656574771274e+00 4.468178097511987801e+00 9.654853631543820924e+00 1.547830345744197089e+00 4.468175671928602988e+00 9.654859689046690008e+00 4.643480348478209230e+00 4.468183246203436987e+00 9.654855746407793760e+00 -3.095637558673096201e+00 7.149089310596611568e+00 9.654852593688096007e+00 1.244364587249139867e-05 7.149086885013225867e+00 9.654858651190966867e+00 3.095652446372057387e+00 7.149084459295891314e+00 9.654854708286638498e+00 1.072799318893677936e-05 1.787270470985574455e+00 1.696112467664888968e+01 3.095660730312157494e+00 1.787268045402188754e+00 1.696113073415176231e+01 6.191310733038334568e+00 1.787265619677025130e+00 1.696112679165463888e+01 -1.547807174105135575e+00 4.468181684070197335e+00 1.696112363879316476e+01 1.547832828213840939e+00 4.468179258494641815e+00 1.696112969588882535e+01 4.643482830940017791e+00 4.468176832769477969e+00 1.696112575339170547e+01 -3.095635076211287640e+00 7.149082897162650774e+00 1.696112260067200594e+01 1.492611551632817961e-05 7.149090471579265582e+00 1.696112865803310044e+01 3.095664928841693087e+00 7.149088045854101736e+00 1.696112471553598056e+01
1.000639449368574511e-02 1.787275295619038085e+00 6.016695073438500074e+00 3.095656405056055327e+00 1.797262877722828778e+00 6.016690582097011131e+00 6.191296399547133511e+00 1.787270452148280508e+00 6.016696780828531210e+00 -1.547811507604180514e+00 4.468176516533623577e+00 6.016693628516041059e+00 1.547828494722631953e+00 4.468184090958066790e+00 6.016699685469926173e+00 4.643478497448808362e+00 4.468181665232902944e+00 6.016695742972805405e+00 -3.095639409702497069e+00 7.149087729626076637e+00 6.016692590253107653e+00 1.059261647140256612e-05 7.149085304042691824e+00 6.016698647755977625e+00 3.095660595350484101e+00 7.149092878317525823e+00 6.016694705117080488e+00 8.876963787847873966e-06 1.787268890015040190e+00 1.332296467321390132e+01 3.095658879689964671e+00 1.787266464289876566e+00 1.332296073071678144e+01 6.191308882008931924e+00 1.787264038706491087e+00 1.332296678821965052e+01 -1.547809025134536665e+00 4.468180103099664180e+00 1.332296363535817640e+01 1.547840977591640188e+00 4.468177677374499446e+00 1.332295969286105652e+01 4.643480979910616036e+00 4.468175251798944814e+00 1.332296574995671712e+01 -3.095626927232861370e+00 7.149091316184286171e+00 1.332296259750245149e+01 1.307508611523934706e-05 7.149088890608731539e+00 1.332296865459811208e+01 3.095663077812292219e+00 7.149086464883567693e+00 1.332296471210099220e+01 2.135942558765566932e-05 1.787262476573250991e+00 2.062923468060501975e+01 3.095661362159608299e+00 1.787270050855916281e+00 2.062923073755891679e+01 6.191311364478575996e+00 1.787267625272530802e+00 2.062923679506178587e+01 -1.547806542672728769e+00 4.468173689665704273e+00 2.062923364234208634e+01 1.547843460053448084e+00 4.468171263940540427e+00 2.062922969984496646e+01 4.643493462380252623e+00 4.468178838357153460e+00 2.062923575720606095e+01 -3.095624444771053696e+00 7.149084902750327153e+00 2.062923260448636498e+01 2.555795512344716974e-05 7.149082477025164195e+00 2.062922866198924154e+01 3.095665560274099448e+00 7.149080051449607787e+00 2.062923471908490569e+01 1.547828188595516297e+00 8.936370704764997619e-01 1.289570360259301163e+00 4.643468190914492588e+00 8.936346449009441306e-01 1.289576417354963533e+00 7.739118193640669219e+00 8.936322191757807287e-01 1.289572474857843210e+00 2.864971998821980313e-07 3.574548283568952822e+00 1.289569321996367535e+00 3.095650288816168771e+00 3.574545857985567565e+00 1.289575379499238394e+00 6.191290291542353330e+00 3.574543432268233900e+00 1.289571436594909581e+00 -1.547817616016168962e+00 6.255449496795354669e+00 1.289578284282410614e+00 1.547822386717851995e+00 6.255457071078020626e+00 1.289574341236304544e+00 4.643472389444028181e+00 6.255454645352856780e+00 1.289570398739184443e+00 1.547830671057324192e+00 8.936306570425404106e-01 8.595840367243212654e+00 4.643480673384128288e+00 8.936382314591538867e-01 8.595846424604307146e+00 7.739120676110313291e+00 8.936358057418203327e-01 8.595842481699978777e+00 2.768959007984024577e-06 3.574541870134993360e+00 8.595839328980281024e+00 3.095652771277976445e+00 3.574539444551607659e+00 8.595845386483150108e+00 6.191302774011989030e+00 3.574547018826443434e+00 8.595841443844252083e+00 -1.547815133139316623e+00 6.255453083219616239e+00 8.595838291124554331e+00 1.547834869179651740e+00 6.255450657636231426e+00 8.595844348627425191e+00 4.643474871905836743e+00 6.255448231918896873e+00 8.595840405723096822e+00 1.547833153526968264e+00 8.936342436085802365e-01 1.590211037408534800e+01 4.643483156253145339e+00 8.936318178834166126e-01 1.590210643158822812e+01 7.739133158572113480e+00 8.936293923000311334e-01 1.590211248909109898e+01 1.525142864352679439e-05 3.574545456693203338e+00 1.590210933622962308e+01 3.095665253747611700e+00 3.574543031109817637e+00 1.590211539373249394e+01 6.191305256473797591e+00 3.574540605392484416e+00 1.590211145082816557e+01 -1.547812650677508506e+00 6.255446669785656333e+00 1.590210829810846782e+01 1.547837351649295590e+00 6.255454244202271141e+00 1.590211435546955876e+01 4.643487354375472442e+00 6.255451818477107295e+00 1.590211041297244066e+01 -1.547806256175528805e+00 8.042721973234655763e+00 2.191880296433845743e+01 1.547843746143439780e+00 8.042719547651271839e+00 2.191880902184132651e+01 4.643493748869616411e+00 8.042717121926107993e+00 2.191880507934420663e+01 1.547839548021112233e+00 2.680899547057580712e+00 2.191880504045711575e+01 4.643489550347915440e+00 2.680907121474194188e+00 2.191881109781820669e+01 7.739139553074092959e+00 2.680904695749030786e+00 2.191880715532108681e+01 2.164592278753783321e-05 5.361810760142204479e+00 2.191880400260139083e+01 3.095671648241756113e+00 5.361808334558817890e+00 2.191881006010425992e+01 6.191311650975777070e+00 5.361815908841483846e+00 2.191880611705815340e+01 3.095652485195821146e+00 1.160840876161366988e-06 7.306266064345014577e+00 6.191302487514788844e+00 -1.264742509392564914e-06 7.306272121847885437e+00 2.482461808101844598e-06 -6.413433959322968923e-06 7.306270006983911713e+00 1.547834583089660265e+00 2.680902373925500459e+00 7.306265026631066917e+00 4.643474585416472955e+00 2.680909948349943672e+00 7.306271083584952031e+00 -1.547815419636516365e+00 2.680904799650663861e+00 7.306268969128187685e+00 6.680991343893380585e-06 5.361813587017953964e+00 7.306263988368133511e+00 3.095656683310312296e+00 5.361811161434568263e+00 7.306270045871004370e+00 -3.095643321734832920e+00 5.361816012743116922e+00 7.306267930865253390e+00 -1.547808738645172655e+00 8.042718386668617825e+00 1.461253295749632031e+01 1.547841263681631441e+00 8.042725961085229969e+00 1.461253901485741480e+01 4.643481266407816221e+00 8.042723535367896304e+00 1.461253507195308643e+01 1.547837065559304115e+00 2.680905960491539730e+00 1.461253503347320226e+01 4.643487067878272256e+00 2.680903534908154029e+00 1.461254109097607312e+01 7.739127070604457259e+00 2.680901109190820808e+00 1.461253714807174298e+01 1.916346097943605976e-05 5.361817173576162610e+00 1.461253399561747734e+01 3.095659165779955924e+00 5.361814748000607089e+00 1.461254005271313794e+01 6.191309168506132998e+00 5.361812322275444131e+00 1.461253611021601984e+01 1.547828820035759056e+00 8.936390760720051007e-01 4.957680363666447931e+00 4.643478822761935909e+00 8.936366503468416989e-01 4.957676421169327163e+00 7.739118825080913311e+00 8.936342247712860676e-01 4.957682478264989534e+00 1.091792959860117921e-05 3.574540289156629136e+00 4.957679325952500271e+00 3.095650920256410643e+00 3.574547863581072349e+00 4.957685382906384497e+00 6.191300922982587274e+00 3.574545437855908947e+00 4.957681440409265505e+00 -1.547816984168717713e+00 6.255451502249082196e+00 4.957678287689566865e+00 1.547833018150250650e+00 6.255449076665697383e+00 4.957684345192436837e+00 4.643483020884263013e+00 6.255456650940532271e+00 4.957680402553539700e+00 1.547831302497567174e+00 8.936326626380459714e-01 1.226395037065035964e+01 4.643481305223744471e+00 8.936302369128823475e-01 1.226394642815323976e+01 7.739131307542712612e+00 8.936278113294968684e-01 1.226395248565611062e+01 1.340039924243785172e-05 3.574543875722668851e+00 1.226394933279463473e+01 3.095663403125418434e+00 3.574541449997505449e+00 1.226394539029751662e+01 6.191303405444395835e+00 3.574539024421949929e+00 1.226395144739317722e+01 -1.547804501699082236e+00 6.255455088807291730e+00 1.226394829493890981e+01 1.547835500619894500e+00 6.255452663231736210e+00 1.226395435203457218e+01 4.643485503346071575e+00 6.255450237506573252e+00 1.226395040953745230e+01 1.547843784959367142e+00 8.936262491962565502e-01 1.957022037804148340e+01 4.643483787693386766e+00 8.936338234789220625e-01 1.957021643499537333e+01 7.739133790012355796e+00 8.936313978955364723e-01 1.957022249249824597e+01 1.588286105053962347e-05 3.574537462288709833e+00 1.957021933977854644e+01 3.095665885587227439e+00 3.574535036563546431e+00 1.957021539728142656e+01 6.191315887914031535e+00 3.574542610980159463e+00 1.957022145464252105e+01 -1.547802019237273896e+00 6.255448675373332712e+00 1.957021830192282152e+01 1.547847983488902734e+00 6.255446249648168866e+00 1.957021435942570164e+01 4.643487985807879248e+00 6.255443824072613346e+00 1.957022041652136224e+01 -4.236938254707785071e-06 1.787273297861323940e+00 2.348584662415633240e+00 3.095645765380713677e+00 1.787270872277938460e+00 2.348590719918504099e+00 6.191295768106890307e+00 1.787268446552775059e+00 2.348586777421384220e+00 -1.547822139036579392e+00 4.468184510945946819e+00 2.348583624559908323e+00 1.547827863282388972e+00 4.468182085362561118e+00 2.348589682062779183e+00 4.643467866008573530e+00 4.468179659645227453e+00 2.348585739158450814e+00 -3.095640041549947874e+00 7.149085724172349110e+00 2.348592586845951402e+00 -3.881592731637944001e-08 7.149093298455015066e+00 2.348588643799845332e+00 3.095649963910249713e+00 7.149090872729852109e+00 2.348584701302725453e+00 8.245523545099998428e-06 1.787266884419534962e+00 9.654854669806754330e+00 3.095658247850349376e+00 1.787274458836147994e+00 9.654860727167847045e+00 6.191298250576534379e+00 1.787272033118814774e+00 9.654856784263518676e+00 -1.547819656574771274e+00 4.468178097511987801e+00 9.654853631543820924e+00 1.547830345744197089e+00 4.468175671928602988e+00 9.654859689046690008e+00 4.643480348478209230e+00 4.468183246203436987e+00 9.654855746407793760e+00 -3.095637558673096201e+00 7.149089310596611568e+00 9.654852593688096007e+00 1.244364587249139867e-05 7.149086885013225867e+00 9.654858651190966867e+00 3.095652446372057387e+00 7.149084459295891314e+00 9.654854708286638498e+00 1.072799318893677936e-05 1.787270470985574455e+00 1.696112467664888968e+01 3.095660730312157494e+00 1.787268045402188754e+00 1.696113073415176231e+01 6.191310733038334568e+00 1.787265619677025130e+00 1.696112679165463888e+01 -1.547807174105135575e+00 4.468181684070197335e+00 1.696112363879316476e+01 1.547832828213840939e+00 4.468179258494641815e+00 1.696112969588882535e+01 4.643482830940017791e+00 4.468176832769477969e+00 1.696112575339170547e+01 -3.095635076211287640e+00 7.149082897162650774e+00 1.696112260067200594e+01 1.492611551632817961e-05 7.149090471579265582e+00 1.696112865803310044e+01 3.095664928841693087e+00 7.149088045854101736e+00 1.696112471553598056e+01