2.343109999999999804e+00 3.083769999999999900e+00 5.130720000000000169e+00 5.187100000000000044e-01 3.631419999999999870e+00 2.398690000000000211e+00 1.850589999999999957e+00 1.123080000000000078e+00 2.398719999999999963e+00 3.405260000000000176e+00 3.631419999999999870e+00 2.398699999999999832e+00 2.565900000000000070e+00 8.100440000000000751e+00 5.130720000000000169e+00 2.073409999999999975e+00 6.139759999999999884e+00 2.398730000000000029e+00 3.897780000000000022e+00 5.592109999999999914e+00 5.130709999999999660e+00 5.229659999999999975e+00 3.083769999999999900e+00 5.130720000000000169e+00 5.452460000000000306e+00 8.100429999999999353e+00 5.130709999999999660e+00 1.681629999999999958e+00 4.497300000000000075e+00 9.957729999999999748e+00 3.013520000000000199e+00 1.988979999999999970e+00 9.957760000000000389e+00 4.568200000000000038e+00 4.497309999999999697e+00 9.957720000000000127e+00 3.236320000000000086e+00 7.005630000000000024e+00 9.957770000000000010e+00 3.506040000000000045e+00 3.949650000000000105e+00 1.268975000000000009e+01 3.728839999999999932e+00 8.966319999999999624e+00 1.268975000000000009e+01 5.060719999999999885e+00 6.458000000000000185e+00 1.268975000000000009e+01 6.392590000000000217e+00 3.949650000000000105e+00 1.268974000000000046e+01 6.615389999999999660e+00 8.966319999999999624e+00 1.268975000000000009e+01 4.668969999999999843e+00 4.815529999999999866e+00 2.024878000000000000e+01 2.844570000000000043e+00 5.363190000000000346e+00 1.751674999999999827e+01 4.176459999999999617e+00 2.854859999999999953e+00 1.751679999999999993e+01 5.731119999999999770e+00 5.363170000000000215e+00 1.751676000000000144e+01 4.891759999999999664e+00 9.832190000000000651e+00 2.024878000000000000e+01 4.399259999999999948e+00 7.871529999999999916e+00 1.751679999999999993e+01 6.223629999999999995e+00 7.323870000000000324e+00 2.024878999999999962e+01 7.555509999999999948e+00 4.815520000000000245e+00 2.024877000000000038e+01 7.778319999999999901e+00 9.832200000000000273e+00 2.024878000000000000e+01 4.343390000000000306e+00 1.562545000000000073e+01 5.130720000000000169e+00 7.415100000000000025e-01 8.648089999999999833e+00 2.398699999999999832e+00 3.628060000000000063e+00 8.648089999999999833e+00 2.398699999999999832e+00 2.788699999999999957e+00 1.311711000000000027e+01 5.130709999999999660e+00 9.643199999999999550e-01 1.366475999999999935e+01 2.398699999999999832e+00 2.296209999999999862e+00 1.115643000000000029e+01 2.398719999999999963e+00 4.120589999999999975e+00 1.060879000000000083e+01 5.130720000000000169e+00 3.850849999999999884e+00 1.366475999999999935e+01 2.398690000000000211e+00 5.675259999999999749e+00 1.311711000000000027e+01 5.130720000000000169e+00 1.904449999999999976e+00 9.513980000000000103e+00 9.957720000000000127e+00 4.790989999999999860e+00 9.513960000000000861e+00 9.957720000000000127e+00 2.127250000000000085e+00 1.453063000000000038e+01 9.957729999999999748e+00 3.459119999999999973e+00 1.202230999999999916e+01 9.957770000000000010e+00 5.013790000000000191e+00 1.453064000000000000e+01 9.957720000000000127e+00 5.506300000000000416e+00 1.649132000000000176e+01 1.268975000000000009e+01 3.951630000000000198e+00 1.398297999999999952e+01 1.268975000000000009e+01 5.283509999999999707e+00 1.147466999999999970e+01 1.268975000000000009e+01 6.838180000000000369e+00 1.398298999999999914e+01 1.268975000000000009e+01 6.669229999999999769e+00 1.735719999999999885e+01 2.024878999999999962e+01 3.067379999999999995e+00 1.037984999999999935e+01 1.751674999999999827e+01 5.953929999999999723e+00 1.037984999999999935e+01 1.751676000000000144e+01 5.114569999999999617e+00 1.484886999999999979e+01 2.024877000000000038e+01 3.290160000000000196e+00 1.539650999999999925e+01 1.751676000000000144e+01 4.622060000000000279e+00 1.288818999999999981e+01 1.751679999999999993e+01 6.446439999999999948e+00 1.234055000000000035e+01 2.024878999999999962e+01 6.176709999999999923e+00 1.539650999999999925e+01 1.751676000000000144e+01 8.001110000000000610e+00 1.484886000000000017e+01 2.024878999999999962e+01 4.737149999999999750e+00 1.123099999999999987e+00 2.398730000000000029e+00 8.116210000000000591e+00 3.083779999999999966e+00 5.130709999999999660e+00 6.291800000000000281e+00 3.631419999999999870e+00 2.398690000000000211e+00 7.623689999999999856e+00 1.123099999999999987e+00 2.398719999999999963e+00 4.959939999999999571e+00 6.139750000000000263e+00 2.398719999999999963e+00 6.784329999999999750e+00 5.592109999999999914e+00 5.130720000000000169e+00 8.339010000000000034e+00 8.100429999999999353e+00 5.130720000000000169e+00 7.846490000000000187e+00 6.139759999999999884e+00 2.398730000000000029e+00 9.670880000000000365e+00 5.592120000000000424e+00 5.130709999999999660e+00 5.900079999999999991e+00 1.988960000000000061e+00 9.957760000000000389e+00 7.454740000000000144e+00 4.497300000000000075e+00 9.957729999999999748e+00 8.786630000000000607e+00 1.988979999999999970e+00 9.957760000000000389e+00 6.122880000000000322e+00 7.005639999999999645e+00 9.957760000000000389e+00 9.009420000000000428e+00 7.005639999999999645e+00 9.957760000000000389e+00 9.279139999999999944e+00 3.949640000000000040e+00 1.268975000000000009e+01 7.947269999999999612e+00 6.457989999999999675e+00 1.268975000000000009e+01 9.501929999999999765e+00 8.966319999999999624e+00 1.268975000000000009e+01 1.083380999999999972e+01 6.457989999999999675e+00 1.268975999999999971e+01 7.063019999999999854e+00 2.854849999999999888e+00 1.751679999999999993e+01 1.044205999999999968e+01 4.815520000000000245e+00 2.024877000000000038e+01 8.617670000000000385e+00 5.363179999999999836e+00 1.751677000000000106e+01 9.949550000000000338e+00 2.854849999999999888e+00 1.751679999999999993e+01 7.285820000000000185e+00 7.871520000000000294e+00 1.751680999999999955e+01 9.110179999999999723e+00 7.323879999999999946e+00 2.024878000000000000e+01 1.066485999999999912e+01 9.832190000000000651e+00 2.024878000000000000e+01 1.017234999999999978e+01 7.871509999999999785e+00 1.751679000000000030e+01 1.199672999999999945e+01 7.323879999999999946e+00 2.024878000000000000e+01 7.229919999999999902e+00 1.562545000000000073e+01 5.130720000000000169e+00 6.514619999999999855e+00 8.648089999999999833e+00 2.398690000000000211e+00 5.182739999999999903e+00 1.115642000000000067e+01 2.398730000000000029e+00 7.007130000000000081e+00 1.060877999999999943e+01 5.130709999999999660e+00 8.561790000000000234e+00 1.311710000000000065e+01 5.130709999999999660e+00 6.737409999999999677e+00 1.366475999999999935e+01 2.398690000000000211e+00 8.069300000000000139e+00 1.115642000000000067e+01 2.398719999999999963e+00 1.011647999999999925e+01 1.562546000000000035e+01 5.130709999999999660e+00 9.893679999999999808e+00 1.060877999999999943e+01 5.130720000000000169e+00 7.677529999999999966e+00 9.513970000000000482e+00 9.957729999999999748e+00 6.345670000000000144e+00 1.202230999999999916e+01 9.957770000000000010e+00 7.900330000000000297e+00 1.453064000000000000e+01 9.957720000000000127e+00 9.232229999999999492e+00 1.202230999999999916e+01 9.957760000000000389e+00 8.392870000000000275e+00 1.649133000000000138e+01 1.268975999999999971e+01 8.170059999999999434e+00 1.147465000000000046e+01 1.268975999999999971e+01 9.724729999999999208e+00 1.398297999999999952e+01 1.268974000000000046e+01 1.127941000000000038e+01 1.649134000000000100e+01 1.268975999999999971e+01 1.105660999999999916e+01 1.147466000000000008e+01 1.268975999999999971e+01 9.555780000000000385e+00 1.735722000000000165e+01 2.024878999999999962e+01 8.840460000000000207e+00 1.037983999999999973e+01 1.751676000000000144e+01 7.508600000000000385e+00 1.288818000000000019e+01 1.751679999999999993e+01 9.332990000000000563e+00 1.234055000000000035e+01 2.024879999999999924e+01 1.088766000000000034e+01 1.484886999999999979e+01 2.024877000000000038e+01 9.063259999999999650e+00 1.539650999999999925e+01 1.751676000000000144e+01 1.039516000000000062e+01 1.288818000000000019e+01 1.751679999999999993e+01 1.244233999999999973e+01 1.735720999999999847e+01 2.024878999999999962e+01 1.221953000000000067e+01 1.234054000000000073e+01 2.024878999999999962e+01 2.625899999999999901e-01 1.878100000000000047e-01 1.296030000000000015e+00 6.535100000000000353e-01 2.103429999999999911e+00 3.764660000000000117e+00 1.817229999999999901e+00 2.696159999999999890e+00 1.296030000000000015e+00 4.853899999999999881e-01 5.204480000000000217e+00 1.296010000000000106e+00 2.208250000000000046e+00 4.611780000000000435e+00 3.764749999999999819e+00 3.540049999999999919e+00 2.103409999999999780e+00 3.764670000000000183e+00 3.149129999999999985e+00 1.878199999999999870e-01 1.296010000000000106e+00 8.763100000000000334e-01 7.120079999999999742e+00 3.764660000000000117e+00 3.371929999999999872e+00 5.204480000000000217e+00 1.296019999999999950e+00 3.762859999999999872e+00 7.120079999999999742e+00 3.764670000000000183e+00 1.425499999999999989e+00 1.053679999999999950e+00 8.855050000000000310e+00 2.376469999999999860e+00 1.510690000000000088e+00 6.233530000000000015e+00 3.931150000000000144e+00 4.019020000000000259e+00 6.233480000000000132e+00 2.599270000000000191e+00 6.527350000000000207e+00 6.233520000000000394e+00 1.816429999999999989e+00 2.969289999999999985e+00 1.132368999999999915e+01 2.980170000000000208e+00 3.562040000000000095e+00 8.855050000000000310e+00 1.648320000000000007e+00 6.070359999999999978e+00 8.855050000000000310e+00 3.371179999999999843e+00 5.477649999999999686e+00 1.132377999999999929e+01 4.702989999999999782e+00 2.969300000000000050e+00 1.132370000000000054e+01 4.312059999999999782e+00 1.053679999999999950e+00 8.855050000000000310e+00 2.039239999999999942e+00 7.985960000000000392e+00 1.132368999999999915e+01 4.534849999999999604e+00 6.070339999999999847e+00 8.855059999999999931e+00 4.925779999999999603e+00 7.985960000000000392e+00 1.132370000000000054e+01 5.263010000000000410e+00 1.510699999999999932e+00 6.233530000000000015e+00 5.485820000000000363e+00 6.527350000000000207e+00 6.233530000000000015e+00 2.588439999999999852e+00 1.919559999999999933e+00 1.641409000000000162e+01 5.697790000000000354e+00 6.936230000000000118e+00 1.641409000000000162e+01 3.539390000000000036e+00 2.376570000000000071e+00 1.379256999999999955e+01 5.094059999999999810e+00 4.884900000000000020e+00 1.379251999999999967e+01 3.762199999999999989e+00 7.393239999999999590e+00 1.379255999999999993e+01 4.143080000000000318e+00 4.427909999999999791e+00 1.641407999999999845e+01 2.811240000000000183e+00 6.936219999999999608e+00 1.641409000000000162e+01 5.474990000000000023e+00 1.919550000000000090e+00 1.641410000000000124e+01 6.425950000000000273e+00 2.376570000000000071e+00 1.379255999999999993e+01 6.648729999999999585e+00 7.393239999999999590e+00 1.379255999999999993e+01 6.088720000000000354e+00 8.851839999999999264e+00 1.888271999999999906e+01 2.979369999999999852e+00 3.835170000000000190e+00 1.888273999999999830e+01 4.925130000000000230e+00 8.259109999999999729e+00 2.135159000000000162e+01 4.534089999999999954e+00 6.343530000000000335e+00 1.888282999999999845e+01 4.702329999999999899e+00 3.242449999999999832e+00 2.135160000000000124e+01 5.865910000000000402e+00 3.835179999999999811e+00 1.888273999999999830e+01 6.256990000000000052e+00 5.750770000000000159e+00 2.135154999999999959e+01 3.202160000000000117e+00 8.851829999999999643e+00 1.888272999999999868e+01 7.588860000000000383e+00 3.242449999999999832e+00 2.135161000000000087e+01 7.811670000000000336e+00 8.259119999999999351e+00 2.135161000000000087e+01 3.594720000000000137e+00 1.022114999999999974e+01 1.296019999999999950e+00 3.985660000000000203e+00 1.213674999999999926e+01 3.764660000000000117e+00 2.040029999999999788e+00 7.712830000000000297e+00 1.296010000000000106e+00 2.431029999999999802e+00 9.628439999999999444e+00 3.764749999999999819e+00 1.099110000000000031e+00 1.213674999999999926e+01 3.764650000000000052e+00 2.262830000000000119e+00 1.272949000000000019e+01 1.296030000000000015e+00 7.081800000000000317e-01 1.022114000000000011e+01 1.296030000000000015e+00 2.653840000000000199e+00 1.464509999999999934e+01 3.764749999999999819e+00 4.757649999999999935e+00 1.108702000000000076e+01 8.855050000000000310e+00 4.153940000000000410e+00 9.035679999999999268e+00 6.233489999999999753e+00 5.148579999999999934e+00 1.300263999999999953e+01 1.132370000000000054e+01 2.822060000000000013e+00 1.154401000000000010e+01 6.233530000000000015e+00 4.376730000000000231e+00 1.405233999999999916e+01 6.233469999999999622e+00 3.202970000000000095e+00 8.578709999999999170e+00 8.855059999999999931e+00 3.593960000000000043e+00 1.049432999999999971e+01 1.132379000000000069e+01 2.262030000000000207e+00 1.300262999999999991e+01 1.132368999999999915e+01 3.425759999999999916e+00 1.359537000000000084e+01 8.855069999999999553e+00 1.871110000000000051e+00 1.108703000000000038e+01 8.855059999999999931e+00 3.816759999999999931e+00 1.551097999999999999e+01 1.132377999999999929e+01 5.708599999999999675e+00 1.154401999999999973e+01 6.233530000000000015e+00 5.920580000000000176e+00 1.195290999999999926e+01 1.641407999999999845e+01 3.034030000000000005e+00 1.195289999999999964e+01 1.641409000000000162e+01 4.588680000000000092e+00 1.446124999999999972e+01 1.641407999999999845e+01 5.316869999999999763e+00 9.901550000000000296e+00 1.379251000000000005e+01 4.365899999999999892e+00 9.444589999999999819e+00 1.641409000000000162e+01 3.984999999999999876e+00 1.240991000000000000e+01 1.379255999999999993e+01 5.539670000000000094e+00 1.491821999999999981e+01 1.379251999999999967e+01 6.871550000000000047e+00 1.240991000000000000e+01 1.379256999999999955e+01 6.702589999999999826e+00 1.578411000000000008e+01 2.135155999999999921e+01 6.311510000000000176e+00 1.386851000000000056e+01 1.888272999999999868e+01 5.147929999999999673e+00 1.327576999999999963e+01 2.135160000000000124e+01 4.756899999999999906e+00 1.136020000000000074e+01 1.888281999999999883e+01 6.479790000000000383e+00 1.076742999999999917e+01 2.135154999999999959e+01 3.424960000000000004e+00 1.386851000000000056e+01 1.888273999999999830e+01 4.979700000000000237e+00 1.637687000000000026e+01 1.888281999999999883e+01 8.034470000000000667e+00 1.327577999999999925e+01 2.135159000000000162e+01 4.703789999999999694e+00 2.696159999999999890e+00 1.296019999999999950e+00 6.649390000000000356e+00 7.120090000000000252e+00 3.764670000000000183e+00 6.258469999999999978e+00 5.204480000000000217e+00 1.296019999999999950e+00 5.094789999999999708e+00 4.611780000000000435e+00 3.764749999999999819e+00 6.426599999999999646e+00 2.103409999999999780e+00 3.764660000000000117e+00 7.590320000000000178e+00 2.696159999999999890e+00 1.296010000000000106e+00 6.035680000000000156e+00 1.877999999999999947e-01 1.296010000000000106e+00 7.981329999999999814e+00 4.611780000000000435e+00 3.764749999999999819e+00 5.866710000000000313e+00 3.562040000000000095e+00 8.855050000000000310e+00 6.817689999999999806e+00 4.019020000000000259e+00 6.233480000000000132e+00 8.149570000000000647e+00 1.510680000000000023e+00 6.233530000000000015e+00 7.812330000000000219e+00 7.985960000000000392e+00 1.132370000000000054e+01 8.372360000000000468e+00 6.527359999999999829e+00 6.233530000000000015e+00 7.421400000000000219e+00 6.070339999999999847e+00 8.855050000000000310e+00 6.257710000000000328e+00 5.477660000000000196e+00 1.132377999999999929e+01 7.589520000000000266e+00 2.969300000000000050e+00 1.132368999999999915e+01 8.753249999999999531e+00 3.562040000000000095e+00 8.855050000000000310e+00 7.198610000000000397e+00 1.053700000000000081e+00 8.855050000000000310e+00 9.144249999999999545e+00 5.477640000000000065e+00 1.132377999999999929e+01 9.704230000000000800e+00 4.019020000000000259e+00 6.233480000000000132e+00 7.029639999999999667e+00 4.427929999999999922e+00 1.641407999999999845e+01 8.361530000000000129e+00 1.919569999999999999e+00 1.641407999999999845e+01 9.916190000000000282e+00 4.427909999999999791e+00 1.641410000000000124e+01 7.980610000000000426e+00 4.884890000000000398e+00 1.379251999999999967e+01 9.312490000000000379e+00 2.376570000000000071e+00 1.379256999999999955e+01 8.584319999999999951e+00 6.936230000000000118e+00 1.641409000000000162e+01 9.535289999999999822e+00 7.393229999999999968e+00 1.379256999999999955e+01 1.086716999999999977e+01 4.884879999999999889e+00 1.379251000000000005e+01 1.069821999999999917e+01 8.259100000000000108e+00 2.135160000000000124e+01 8.975260000000000460e+00 8.851839999999999264e+00 1.888273999999999830e+01 7.420639999999999681e+00 6.343530000000000335e+00 1.888282999999999845e+01 1.047541000000000011e+01 3.242459999999999898e+00 2.135160000000000124e+01 8.752459999999999241e+00 3.835179999999999811e+00 1.888271999999999906e+01 9.143539999999999779e+00 5.750770000000000159e+00 2.135154999999999959e+01 1.030719000000000030e+01 6.343530000000000335e+00 1.888281999999999883e+01 1.203008999999999951e+01 5.750770000000000159e+00 2.135153999999999996e+01 4.926590000000000025e+00 7.712830000000000297e+00 1.296010000000000106e+00 8.426940000000000097e+00 1.464511000000000074e+01 3.764759999999999884e+00 5.317580000000000418e+00 9.628450000000000841e+00 3.764749999999999819e+00 7.813130000000000130e+00 7.712830000000000297e+00 1.296019999999999950e+00 8.204140000000000654e+00 9.628439999999999444e+00 3.764749999999999819e+00 6.481279999999999930e+00 1.022114000000000011e+01 1.296019999999999950e+00 5.540370000000000239e+00 1.464511000000000074e+01 3.764749999999999819e+00 6.872200000000000308e+00 1.213673999999999964e+01 3.764670000000000183e+00 8.035930000000000462e+00 1.272949000000000019e+01 1.296019999999999950e+00 5.149379999999999846e+00 1.272949999999999982e+01 1.296030000000000015e+00 7.040479999999999627e+00 9.035669999999999646e+00 6.233489999999999753e+00 6.089500000000000135e+00 8.578699999999999548e+00 8.855059999999999931e+00 7.263270000000000337e+00 1.405235000000000056e+01 6.233489999999999753e+00 8.595150000000000290e+00 1.154401999999999973e+01 6.233520000000000394e+00 9.589859999999999829e+00 1.551098999999999961e+01 1.132377999999999929e+01 6.480509999999999771e+00 1.049432000000000009e+01 1.132377999999999929e+01 8.976050000000000750e+00 8.578699999999999548e+00 8.855059999999999931e+00 9.367060000000000386e+00 1.049432999999999971e+01 1.132379000000000069e+01 7.644210000000000171e+00 1.108702000000000076e+01 8.855059999999999931e+00 6.703310000000000102e+00 1.551098999999999961e+01 1.132379000000000069e+01 8.035119999999999152e+00 1.300262000000000029e+01 1.132371000000000016e+01 9.198859999999999815e+00 1.359537000000000084e+01 8.855059999999999931e+00 6.312299999999999578e+00 1.359537000000000084e+01 8.855050000000000310e+00 9.927030000000000243e+00 9.035669999999999646e+00 6.233489999999999753e+00 1.014982999999999969e+01 1.405233999999999916e+01 6.233480000000000132e+00 7.252439999999999998e+00 9.444589999999999819e+00 1.641409000000000162e+01 8.203409999999999869e+00 9.901550000000000296e+00 1.379251999999999967e+01 7.475220000000000198e+00 1.446125999999999934e+01 1.641409000000000162e+01 8.426199999999999690e+00 1.491822999999999944e+01 1.379251000000000005e+01 9.758079999999999643e+00 1.240990000000000038e+01 1.379256999999999955e+01 8.807130000000000791e+00 1.195289000000000001e+01 1.641407999999999845e+01 1.013898000000000010e+01 9.444580000000000197e+00 1.641407999999999845e+01 1.036177999999999955e+01 1.446124999999999972e+01 1.641409000000000162e+01 1.108995999999999960e+01 9.901559999999999917e+00 1.379251999999999967e+01 1.131276000000000082e+01 1.491821999999999981e+01 1.379251999999999967e+01 1.092101000000000077e+01 1.327577999999999925e+01 2.135159000000000162e+01 7.643430000000000391e+00 1.136020000000000074e+01 1.888280999999999921e+01 9.366350000000000620e+00 1.076744000000000057e+01 2.135154999999999959e+01 1.052998999999999974e+01 1.136018999999999934e+01 1.888282999999999845e+01 7.866240000000000343e+00 1.637685000000000102e+01 1.888280999999999921e+01 1.075278999999999918e+01 1.637686000000000064e+01 1.888282999999999845e+01 9.198059999999999903e+00 1.386851000000000056e+01 1.888272999999999868e+01 9.589140000000000441e+00 1.578410000000000046e+01 2.135153999999999996e+01 1.225290000000000035e+01 1.076742999999999917e+01 2.135153999999999996e+01 1.247569000000000017e+01 1.578411000000000008e+01 2.135155999999999921e+01