-2.738893272029999935e+03
-2.738824938480000128e+03
-2.738682559769999898e+03
-2.738468084199999794e+03
-2.738184527240000079e+03
-2.737835721999999805e+03
-2.737426200549999976e+03
-2.736961162359999889e+03
-2.736446467610000127e+03
-2.735888469170000008e+03
