-1.457529999999999937e-01 9.721399999999999486e-02 -8.135590000000000321e-01 1.441870000000000096e-01 -9.618000000000000160e-02 8.140209999999999946e-01 1.447199999999999875e-01 -9.649000000000000632e-02 8.132000000000000339e-01 1.443359999999999921e-01 -9.649800000000000044e-02 8.139250000000000096e-01 -1.452960000000000085e-01 9.630800000000000471e-02 -8.144959999999999978e-01 1.445529999999999871e-01 -9.661300000000000443e-02 8.138940000000000063e-01 -1.457920000000000049e-01 9.714599999999999624e-02 -8.139589999999999881e-01 -1.454310000000000047e-01 9.704899999999999638e-02 -8.139250000000000096e-01 -1.458919999999999939e-01 9.654899999999999594e-02 -8.140979999999999883e-01 1.445369999999999988e-01 -9.632599999999999496e-02 8.140530000000000266e-01 1.447090000000000043e-01 -9.651300000000000157e-02 8.140169999999999906e-01 1.441610000000000114e-01 -9.678100000000000591e-02 8.146520000000000428e-01 1.446530000000000038e-01 -9.680999999999999328e-02 8.135200000000000209e-01 -1.456270000000000064e-01 9.647500000000000520e-02 -8.143359999999999488e-01 -1.455339999999999967e-01 9.686300000000000465e-02 -8.142610000000000126e-01 -1.458820000000000117e-01 9.678100000000000591e-02 -8.145029999999999770e-01 -1.457430000000000114e-01 9.652700000000000169e-02 -8.141549999999999621e-01 -1.454979999999999885e-01 9.689000000000000390e-02 -8.145189999999999930e-01 -1.455789999999999862e-01 9.666099999999999692e-02 -8.131859999999999644e-01 1.444969999999999866e-01 -9.710599999999999787e-02 8.144439999999999458e-01 1.448500000000000065e-01 -9.742299999999999571e-02 8.132319999999999549e-01 1.442110000000000058e-01 -9.652800000000000269e-02 8.143160000000000398e-01 -1.453109999999999957e-01 9.687300000000000078e-02 -8.144679999999999698e-01 1.448490000000000055e-01 -9.656499999999999806e-02 8.139610000000000456e-01 -1.456949999999999912e-01 9.724700000000000011e-02 -8.137090000000000156e-01 -1.456659999999999899e-01 9.676600000000000479e-02 -8.130150000000000432e-01 -1.457610000000000017e-01 9.707300000000000650e-02 -8.143010000000000526e-01 -1.460589999999999944e-01 9.697899999999999576e-02 -8.136499999999999844e-01 1.442620000000000013e-01 -9.689300000000000690e-02 8.149429999999999730e-01 1.442690000000000083e-01 -9.682100000000000428e-02 8.146949999999999470e-01 -1.454129999999999867e-01 9.630400000000000071e-02 -8.144329999999999625e-01 1.442279999999999951e-01 -9.675799999999999679e-02 8.139560000000000128e-01 1.444229999999999958e-01 -9.683999999999999553e-02 8.142570000000000086e-01 -1.460190000000000099e-01 9.639499999999999458e-02 -8.144930000000000225e-01 1.444209999999999938e-01 -9.665799999999999392e-02 8.141080000000000538e-01 -1.457450000000000134e-01 9.651700000000000557e-02 -8.145489999999999675e-01 1.440529999999999866e-01 -9.683799999999999353e-02 8.147870000000000390e-01 1.441820000000000046e-01 -9.649699999999999944e-02 8.146379999999999733e-01 1.440599999999999936e-01 -9.634399999999999908e-02 8.150380000000000402e-01 1.448240000000000083e-01 -9.700200000000000489e-02 8.142580000000000373e-01 1.442370000000000041e-01 -9.681099999999999428e-02 8.150460000000000482e-01 -1.458079999999999932e-01 9.699499999999999789e-02 -8.135879999999999779e-01 -1.455930000000000002e-01 9.685799999999999965e-02 -8.136839999999999629e-01 -1.458430000000000004e-01 9.707100000000000450e-02 -8.138800000000000479e-01 -1.456620000000000137e-01 9.668799999999999617e-02 -8.136710000000000331e-01 -1.457340000000000024e-01 9.685399999999999565e-02 -8.137119999999999909e-01 1.440829999999999889e-01 -9.579000000000000015e-02 8.149509999999999810e-01 1.441719999999999946e-01 -9.557499999999999329e-02 8.148300000000000542e-01 -1.457229999999999914e-01 9.605400000000000049e-02 -8.139819999999999833e-01 1.445720000000000061e-01 -9.732799999999999785e-02 8.143219999999999903e-01 1.444789999999999963e-01 -9.682100000000000428e-02 8.139739999999999753e-01 -1.458109999999999962e-01 9.659800000000000331e-02 -8.149469999999999770e-01 1.442640000000000033e-01 -9.730500000000000260e-02 8.143850000000000255e-01 -1.456449999999999967e-01 9.664399999999999380e-02 -8.143709999999999560e-01 1.448510000000000075e-01 -9.683200000000000141e-02 8.129480000000000040e-01 -1.456439999999999957e-01 9.668499999999999317e-02 -8.135219999999999674e-01 1.444580000000000031e-01 -9.656199999999999506e-02 8.141450000000000076e-01 1.446630000000000138e-01 -9.665200000000000180e-02 8.132899999999999574e-01 1.446040000000000103e-01 -9.630199999999999871e-02 8.140579999999999483e-01 -1.458280000000000132e-01 9.721899999999999986e-02 -8.141559999999999908e-01 -1.457920000000000049e-01 9.668499999999999317e-02 -8.144860000000000433e-01 1.447209999999999885e-01 -9.656499999999999806e-02 8.139170000000000016e-01 -1.460180000000000089e-01 9.685900000000000065e-02 -8.138800000000000479e-01 1.445700000000000041e-01 -9.614000000000000323e-02 8.141009999999999636e-01 1.440929999999999989e-01 -9.630299999999999971e-02 8.145999999999999908e-01 1.445859999999999923e-01 -9.655199999999999894e-02 8.142340000000000133e-01 1.445970000000000033e-01 -9.687800000000000578e-02 8.137330000000000396e-01 1.446630000000000138e-01 -9.695099999999999552e-02 8.136250000000000426e-01 -1.456959999999999922e-01 9.658400000000000318e-02 -8.141110000000000291e-01 -1.460829999999999906e-01 9.686300000000000465e-02 -8.143449999999999855e-01 -1.455039999999999945e-01 9.668200000000000405e-02 -8.142899999999999583e-01 -1.457680000000000087e-01 9.675599999999999479e-02 -8.146130000000000315e-01 1.444960000000000133e-01 -9.693699999999999539e-02 8.134000000000000119e-01 -1.457549999999999957e-01 9.678900000000000003e-02 -8.128889999999999727e-01 1.442569999999999963e-01 -9.655199999999999894e-02 8.140349999999999531e-01 1.448709999999999998e-01 -9.727800000000000336e-02 8.132260000000000044e-01 1.445230000000000126e-01 -9.622200000000000197e-02 8.138689999999999536e-01 -1.458280000000000132e-01 9.686799999999999577e-02 -8.132009999999999517e-01 -1.455690000000000039e-01 9.695499999999999952e-02 -8.141540000000000443e-01 1.446900000000000130e-01 -9.626899999999999347e-02 8.139720000000000288e-01 -1.456079999999999874e-01 9.676899999999999391e-02 -8.134599999999999609e-01 -1.456429999999999947e-01 9.720800000000000274e-02 -8.139359999999999928e-01 1.442039999999999988e-01 -9.662400000000000155e-02 8.148349999999999760e-01 1.448270000000000113e-01 -9.645600000000000007e-02 8.136710000000000331e-01 -1.458299999999999874e-01 9.643200000000000383e-02 -8.143639999999999768e-01 -1.454280000000000017e-01 9.638399999999999745e-02 -8.144160000000000288e-01 1.443280000000000118e-01 -9.676899999999999391e-02 8.142319999999999558e-01 1.444169999999999898e-01 -9.658999999999999531e-02 8.142679999999999918e-01 -1.458599999999999897e-01 9.693400000000000627e-02 -8.135409999999999586e-01 -1.460829999999999906e-01 9.665200000000000180e-02 -8.146719999999999517e-01 1.443889999999999896e-01 -9.698800000000000476e-02 8.145299999999999763e-01 1.445460000000000078e-01 -9.687700000000000478e-02 8.139490000000000336e-01 1.443919999999999926e-01 -9.679100000000000203e-02 8.148889999999999745e-01 1.445710000000000051e-01 -9.706900000000000250e-02 8.143190000000000150e-01 -1.459560000000000024e-01 9.700000000000000289e-02 -8.138720000000000399e-01 -1.459149999999999892e-01 9.728199999999999348e-02 -8.138739999999999863e-01 -1.455599999999999949e-01 9.686599999999999377e-02 -8.133869999999999711e-01 -1.459260000000000002e-01 9.651800000000000657e-02 -8.135480000000000489e-01 -1.458319999999999894e-01 9.729799999999999560e-02 -8.138969999999999816e-01 -1.457249999999999934e-01 9.651600000000000457e-02 -8.134609999999999896e-01 1.443020000000000136e-01 -9.561100000000000154e-02 8.147590000000000110e-01 1.446630000000000138e-01 -9.658100000000000018e-02 8.136179999999999524e-01 -1.458520000000000094e-01 9.676300000000000179e-02 -8.151540000000000452e-01 -1.456129999999999924e-01 9.621399999999999397e-02 -8.141150000000000331e-01 1.443709999999999993e-01 -9.704500000000000626e-02 8.140659999999999563e-01 1.445099999999999996e-01 -9.678299999999999403e-02 8.140509999999999691e-01 -1.460680000000000034e-01 9.672100000000000142e-02 -8.132960000000000189e-01 -1.456749999999999989e-01 9.683999999999999553e-02 -8.150960000000000427e-01 1.275906999999999902e+00 1.059781000000000084e+00 -1.171391000000000071e+00 -8.399999999999999535e-05 4.249999999999999763e-04 1.984000000000000086e-03 1.276567000000000007e+00 1.059296999999999933e+00 -1.171408999999999923e+00 1.276027000000000022e+00 1.059482000000000035e+00 -1.169696999999999987e+00 -1.190000000000000058e-04 5.640000000000000482e-04 6.570000000000000319e-04 2.400000000000000061e-04 6.300000000000000261e-04 1.629999999999999939e-03 1.276140000000000052e+00 1.059871999999999925e+00 -1.171108000000000038e+00 1.699999999999999987e-05 -2.539999999999999940e-04 2.125999999999999852e-03 1.275860999999999912e+00 1.059461999999999904e+00 -1.169955999999999996e+00 -8.700000000000000051e-05 -1.169999999999999979e-04 2.141000000000000108e-03 1.275681000000000065e+00 1.060294999999999987e+00 -1.170887000000000011e+00 -1.275568999999999953e+00 -1.056789999999999896e+00 1.167945000000000011e+00 -1.275682999999999900e+00 -1.057139999999999969e+00 1.169073000000000029e+00 -1.275261999999999896e+00 -1.058292000000000010e+00 1.167915000000000036e+00 2.210000000000000050e-04 -8.500000000000000611e-05 1.162999999999999971e-03 1.275457999999999981e+00 1.059650999999999899e+00 -1.171704000000000079e+00 1.275347000000000008e+00 1.059086999999999890e+00 -1.171362000000000014e+00 -3.609999999999999928e-04 -4.150000000000000043e-04 -1.237999999999999951e-03 8.200000000000000095e-05 -3.029999999999999924e-04 1.250000000000000026e-03 1.275263000000000035e+00 1.060430999999999901e+00 -1.170903000000000027e+00 -2.799999999999999755e-04 -2.220000000000000022e-04 4.220000000000000118e-04 1.275554000000000077e+00 1.059703999999999979e+00 -1.171921999999999908e+00 2.079999999999999872e-04 -2.380000000000000117e-04 7.200000000000000182e-05 -1.275352000000000041e+00 -1.056823999999999986e+00 1.167923000000000044e+00 -1.275484000000000062e+00 -1.058219000000000021e+00 1.167967999999999895e+00 1.275716999999999990e+00 1.058335000000000026e+00 -1.171035999999999966e+00 1.275608000000000075e+00 1.059906999999999933e+00 -1.170066000000000050e+00 -1.275422999999999973e+00 -1.059279999999999999e+00 1.169159999999999977e+00 -1.275338000000000083e+00 -1.059217999999999993e+00 1.169100999999999946e+00 -1.275436000000000014e+00 -1.057784000000000058e+00 1.168315999999999910e+00 1.276170000000000027e+00 1.057630999999999988e+00 -1.171172000000000102e+00 1.275827000000000044e+00 1.060151999999999983e+00 -1.170417999999999958e+00 1.275517000000000012e+00 1.058459999999999956e+00 -1.171165000000000012e+00 -1.275501999999999914e+00 -1.059067999999999898e+00 1.169110000000000094e+00 -1.275133000000000072e+00 -1.058111000000000024e+00 1.168449000000000071e+00 -1.010000000000000020e-04 1.397000000000000021e-03 2.926999999999999914e-03 1.810000000000000085e-04 -7.510000000000000399e-04 2.125000000000000153e-03 -1.276089000000000029e+00 -1.058191000000000104e+00 1.168905000000000083e+00 1.779999999999999898e-04 6.629999999999999609e-04 1.167999999999999984e-03 -1.276011000000000006e+00 -1.058359000000000050e+00 1.169774000000000092e+00 4.029999999999999837e-04 -1.167000000000000069e-03 2.121000000000000055e-03 -1.276075999999999988e+00 -1.058195999999999914e+00 1.170687999999999951e+00 3.629999999999999872e-04 1.618000000000000081e-03 2.593999999999999952e-03 -1.275724999999999998e+00 -1.058272000000000101e+00 1.169594000000000023e+00 -1.275949000000000000e+00 -1.058343999999999951e+00 1.168706000000000023e+00 1.276221999999999968e+00 1.059266000000000041e+00 -1.169858000000000064e+00 -2.110000000000000059e-04 -8.859999999999999603e-04 1.539000000000000003e-03 1.276499999999999968e+00 1.058289999999999953e+00 -1.169637000000000038e+00 1.800000000000000113e-04 -8.829999999999999958e-04 3.860000000000000041e-04 -2.979999999999999793e-04 -1.036999999999999944e-03 1.981999999999999821e-03 1.276540999999999926e+00 1.059463999999999961e+00 -1.171327000000000007e+00 1.276235999999999926e+00 1.059536000000000033e+00 -1.169915000000000038e+00 -2.039999999999999984e-04 -2.820000000000000241e-04 -1.469999999999999953e-04 1.275603000000000042e+00 1.058505999999999947e+00 -1.170374999999999943e+00 -1.275449999999999973e+00 -1.059191999999999911e+00 1.168090000000000073e+00 1.100000000000000039e-04 -4.589999999999999896e-04 1.997000000000000077e-03 -1.275152000000000063e+00 -1.058492999999999906e+00 1.166957000000000022e+00 -1.275544999999999929e+00 -1.057347999999999955e+00 1.168471999999999955e+00 1.275751000000000079e+00 1.057630999999999988e+00 -1.171780000000000044e+00 1.730000000000000038e-04 -7.399999999999999623e-05 -6.790000000000000245e-04 9.399999999999999448e-05 -3.660000000000000059e-04 2.425000000000000072e-03 1.276019000000000014e+00 1.058400999999999925e+00 -1.171113000000000071e+00 1.275284000000000084e+00 1.058426000000000089e+00 -1.170520000000000005e+00 -9.999999999999999547e-07 -1.830000000000000029e-04 5.940000000000000184e-04 -1.274926999999999921e+00 -1.058742000000000072e+00 1.167094999999999994e+00 1.275773999999999964e+00 1.060273999999999939e+00 -1.169559999999999933e+00 1.275748000000000104e+00 1.060418000000000083e+00 -1.169621999999999939e+00 1.276011000000000006e+00 1.058297999999999961e+00 -1.170700999999999992e+00 -1.275795999999999930e+00 -1.056504000000000110e+00 1.169845000000000024e+00 1.275821000000000094e+00 1.060667000000000026e+00 -1.170250999999999930e+00 -1.275409999999999933e+00 -1.057355999999999963e+00 1.169586999999999932e+00 -1.275810000000000111e+00 -1.058224999999999971e+00 1.170787999999999940e+00 -1.275452000000000030e+00 -1.057455000000000034e+00 1.169683999999999946e+00 -1.276154999999999928e+00 -1.058502999999999972e+00 1.169739000000000084e+00 2.030000000000000012e-04 -9.899999999999999946e-04 1.002999999999999985e-03 -1.276051000000000046e+00 -1.057946000000000053e+00 1.167381000000000002e+00 2.069999999999999900e-04 8.809999999999999472e-04 -3.570000000000000040e-04 -1.276038999999999923e+00 -1.058233999999999897e+00 1.168401999999999941e+00 4.620000000000000083e-04 -1.075000000000000001e-03 8.329999999999999731e-04 1.550000000000000000e-04 -1.561000000000000104e-03 -1.859999999999999945e-04 -1.276011000000000006e+00 -1.058340999999999976e+00 1.167721999999999927e+00 1.276267999999999958e+00 1.059223999999999943e+00 -1.171111000000000013e+00 4.889999999999999599e-04 -5.410000000000000312e-04 2.047999999999999907e-03 1.276393000000000111e+00 1.059519000000000100e+00 -1.169993000000000061e+00 7.899999999999999579e-05 4.020000000000000136e-04 7.870000000000000476e-04 1.759999999999999954e-04 7.489999999999999913e-04 1.783000000000000080e-03 1.276599000000000039e+00 1.059261999999999926e+00 -1.171173999999999937e+00 1.275906999999999902e+00 1.060148000000000090e+00 -1.170995999999999926e+00 2.739999999999999923e-04 4.130000000000000099e-04 5.360000000000000181e-04 1.275859000000000076e+00 1.059514999999999985e+00 -1.171696000000000071e+00 -1.275447999999999915e+00 -1.057317999999999980e+00 1.169013000000000080e+00 -1.275360999999999967e+00 -1.056448000000000054e+00 1.167464999999999975e+00 1.099999999999999971e-05 -3.069999999999999812e-04 1.110000000000000011e-04 -1.275222000000000078e+00 -1.058580999999999994e+00 1.167651999999999912e+00 1.275762000000000063e+00 1.059693999999999914e+00 -1.171559999999999935e+00 2.469999999999999865e-04 -5.230000000000000274e-04 -1.250999999999999942e-03 2.290000000000000098e-04 -3.570000000000000040e-04 1.513999999999999938e-03 1.276178000000000035e+00 1.059722999999999971e+00 -1.171918999999999933e+00 1.275471999999999939e+00 1.059870000000000090e+00 -1.170752999999999933e+00 2.429999999999999977e-04 -3.420000000000000188e-04 -1.508999999999999925e-03 -1.275247999999999937e+00 -1.057117000000000084e+00 1.168875000000000108e+00 1.276216999999999935e+00 1.057371999999999979e+00 -1.171062999999999965e+00 1.275868999999999920e+00 1.057981000000000060e+00 -1.170989000000000058e+00 1.276029999999999998e+00 1.057698000000000027e+00 -1.171451999999999938e+00 -1.275490999999999930e+00 -1.059104999999999963e+00 1.169003000000000014e+00 -1.275317999999999952e+00 -1.059121999999999897e+00 1.169046999999999947e+00 1.275805000000000078e+00 1.059851000000000099e+00 -1.170239999999999947e+00 -1.275492999999999988e+00 -1.057690000000000019e+00 1.168220999999999954e+00 -1.275808000000000053e+00 -1.059094999999999898e+00 1.169199000000000099e+00 -1.276059000000000054e+00 -1.057960999999999929e+00 1.168816999999999995e+00 2.030000000000000012e-04 1.595999999999999979e-03 2.394999999999999993e-03 8.399999999999999535e-05 4.420000000000000101e-04 1.276999999999999923e-03 -1.275746000000000047e+00 -1.058580000000000076e+00 1.169748000000000010e+00 -8.200000000000000095e-05 -1.103000000000000031e-03 2.580999999999999961e-03 -1.276081000000000021e+00 -1.058249999999999913e+00 1.170657999999999976e+00 1.190000000000000058e-04 5.519999999999999733e-04 1.260000000000000052e-03 -1.276229000000000058e+00 -1.058022000000000018e+00 1.170881999999999978e+00 1.276272999999999991e+00 1.058478000000000030e+00 -1.169599000000000055e+00 -1.710000000000000094e-04 -3.179999999999999776e-04 -1.800000000000000113e-04 2.500000000000000052e-04 -1.209999999999999921e-03 4.910000000000000085e-04 1.276518000000000042e+00 1.058314999999999895e+00 -1.169809000000000099e+00 -3.600000000000000091e-05 -8.610000000000000032e-04 5.789999999999999791e-04 1.276014999999999899e+00 1.059600000000000097e+00 -1.169659000000000004e+00 2.829999999999999942e-04 -5.839999999999999922e-04 -3.490000000000000263e-04 2.079999999999999872e-04 -7.240000000000000342e-04 1.242000000000000048e-03 1.276469999999999994e+00 1.059253999999999918e+00 -1.170930000000000026e+00 1.276626000000000039e+00 1.058788000000000062e+00 -1.171130999999999922e+00 -1.275306999999999968e+00 -1.058953999999999951e+00 1.168025000000000091e+00 1.276030999999999915e+00 1.057963999999999904e+00 -1.171875999999999918e+00 -1.275320000000000009e+00 -1.057630000000000070e+00 1.168255000000000043e+00 -1.274971999999999994e+00 -1.058743999999999907e+00 1.167073999999999945e+00 2.110000000000000059e-04 -4.589999999999999896e-04 5.609999999999999752e-04 -1.640000000000000019e-04 -1.599999999999999928e-05 -4.569999999999999952e-04 1.275854000000000044e+00 1.057722999999999969e+00 -1.171732999999999913e+00 2.220000000000000022e-04 -3.490000000000000263e-04 -5.929999999999999941e-04 1.275168000000000079e+00 1.058570000000000011e+00 -1.170695000000000041e+00 -4.800000000000000122e-05 -2.039999999999999984e-04 3.570000000000000040e-04 1.759999999999999954e-04 -3.000000000000000076e-06 1.768999999999999956e-03 1.275628999999999902e+00 1.058561000000000085e+00 -1.170889000000000069e+00 1.275768000000000013e+00 1.058251000000000053e+00 -1.170611000000000068e+00 -1.275539999999999896e+00 -1.058958000000000066e+00 1.168115000000000014e+00 -1.275775000000000103e+00 -1.057287000000000088e+00 1.168376999999999999e+00 1.276097000000000037e+00 1.060424999999999951e+00 -1.170228000000000046e+00 -1.275476999999999972e+00 -1.056910999999999934e+00 1.169931999999999972e+00 1.276329000000000047e+00 1.057852000000000015e+00 -1.170849999999999946e+00 -1.275204999999999922e+00 -1.058405999999999958e+00 1.170795000000000030e+00 -1.275118999999999891e+00 -1.057010999999999923e+00 1.169361000000000095e+00 1.275516000000000094e+00 1.060476999999999892e+00 -1.169480999999999993e+00 1.276019999999999932e+00 1.060678000000000010e+00 -1.170072999999999919e+00 1.276102000000000070e+00 1.058311000000000002e+00 -1.170855999999999897e+00 -1.275709999999999900e+00 -1.056770999999999905e+00 1.169786999999999910e+00 -1.275673999999999975e+00 -1.058111000000000024e+00 1.170547999999999922e+00 -1.275711000000000039e+00 -1.058041999999999927e+00 1.167453999999999992e+00 3.060000000000000111e-04 5.850000000000000165e-04 -1.440000000000000036e-04 -1.276130999999999904e+00 -1.058510999999999980e+00 1.168603999999999976e+00 4.400000000000000157e-04 1.013999999999999927e-03 -6.070000000000000092e-04 1.340000000000000045e-04 -1.384000000000000031e-03 1.649999999999999991e-04 1.930000000000000021e-04 -1.415999999999999941e-03 -2.390000000000000089e-04 4.229999999999999819e-04 -1.149999999999999981e-03 9.240000000000000166e-04 -1.276083999999999996e+00 -1.058197000000000054e+00 1.169799000000000033e+00 -1.276227000000000000e+00 -1.058224000000000053e+00 1.168617999999999935e+00 -1.276153000000000093e+00 -1.058324000000000042e+00 1.169540000000000024e+00