-1.412881086399999958e+03
-1.412881087740000112e+03
-1.412881090180000001e+03
-1.412881093969999938e+03
-1.412881099189999986e+03
