2.311040000000000205e+00 2.013380000000000170e+00 7.916789999999999772e+00 3.696009999999999796e+00 5.213499999999999801e-01 7.916780000000000150e+00 1.875010000000000066e+00 7.286099999999999799e-01 3.846400000000000041e+00 3.502940000000000165e+00 2.220639999999999947e+00 3.846350000000000158e+00 9.260599999999999943e-01 3.505430000000000046e+00 7.916780000000000150e+00 2.117989999999999817e+00 3.712699999999999889e+00 3.846400000000000041e+00 3.938979999999999926e+00 3.505430000000000046e+00 7.916780000000000150e+00 6.830899999999999750e-01 5.213499999999999801e-01 7.916769999999999641e+00 4.887950000000000017e+00 7.286200000000000454e-01 3.846400000000000041e+00 5.130919999999999703e+00 3.712699999999999889e+00 3.846410000000000107e+00 2.889899999999999913e+00 1.484259999999999913e+00 1.565584999999999916e+01 4.517820000000000391e+00 2.976280000000000037e+00 1.565579999999999927e+01 3.132859999999999978e+00 4.468350000000000044e+00 1.565584999999999916e+01 5.902820000000000178e+00 1.484269999999999978e+00 1.565586000000000055e+01 6.145780000000000243e+00 4.468350000000000044e+00 1.565583999999999953e+01 3.325899999999999856e+00 2.769019999999999815e+00 1.972624000000000066e+01 1.940919999999999979e+00 4.261079999999999757e+00 1.972623000000000104e+01 4.953859999999999708e+00 4.261079999999999757e+00 1.972622000000000142e+01 4.710890000000000022e+00 1.276980000000000004e+00 1.972622000000000142e+01 1.697959999999999914e+00 1.276980000000000004e+00 1.972624000000000066e+01 4.340790000000000148e+00 3.524659999999999904e+00 3.153567999999999927e+01 5.725760000000000183e+00 2.032630000000000159e+00 3.153566999999999965e+01 3.904760000000000009e+00 2.239910000000000068e+00 2.746529999999999916e+01 5.532700000000000173e+00 3.731939999999999813e+00 2.746525000000000105e+01 2.955799999999999983e+00 5.016720000000000290e+00 3.153566999999999965e+01 4.147730000000000139e+00 5.223980000000000068e+00 2.746529999999999916e+01 5.968729999999999869e+00 5.016709999999999781e+00 3.153567999999999927e+01 2.712829999999999853e+00 2.032639999999999780e+00 3.153567999999999927e+01 6.917679999999999829e+00 2.239910000000000068e+00 2.746528999999999954e+01 7.160669999999999646e+00 5.223980000000000068e+00 2.746528999999999954e+01 2.553999999999999826e+00 4.997449999999999726e+00 7.916789999999999772e+00 3.745919999999999916e+00 5.204729999999999634e+00 3.846340000000000092e+00 1.169019999999999948e+00 6.489510000000000112e+00 7.916789999999999772e+00 2.796969999999999956e+00 7.981530000000000236e+00 7.916789999999999772e+00 2.360949999999999882e+00 6.696790000000000020e+00 3.846410000000000107e+00 4.181939999999999991e+00 6.489519999999999733e+00 7.916780000000000150e+00 3.988890000000000047e+00 8.188810000000000144e+00 3.846350000000000158e+00 5.373879999999999768e+00 6.696790000000000020e+00 3.846410000000000107e+00 4.760790000000000077e+00 5.960359999999999658e+00 1.565579999999999927e+01 3.375840000000000174e+00 7.452440000000000175e+00 1.565583999999999953e+01 5.003759999999999764e+00 8.944449999999999790e+00 1.565579999999999927e+01 6.388749999999999929e+00 7.452420000000000044e+00 1.565586000000000055e+01 3.568880000000000052e+00 5.753099999999999881e+00 1.972623000000000104e+01 2.183899999999999952e+00 7.245160000000000267e+00 1.972623000000000104e+01 3.811840000000000117e+00 8.737170000000000769e+00 1.972624000000000066e+01 5.196819999999999773e+00 7.245160000000000267e+00 1.972622000000000142e+01 4.583750000000000213e+00 6.508729999999999905e+00 3.153567999999999927e+01 5.775660000000000238e+00 6.716020000000000323e+00 2.746524000000000143e+01 3.198770000000000113e+00 8.000790000000000290e+00 3.153567999999999927e+01 4.826730000000000409e+00 9.492829999999999657e+00 3.153568999999999889e+01 4.390699999999999825e+00 8.208069999999999311e+00 2.746529999999999916e+01 6.211689999999999934e+00 8.000799999999999912e+00 3.153566999999999965e+01 6.018620000000000303e+00 9.700100000000000833e+00 2.746525000000000105e+01 7.403629999999999711e+00 8.208069999999999311e+00 2.746529999999999916e+01 5.323959999999999582e+00 2.013370000000000104e+00 7.916800000000000281e+00 6.708940000000000126e+00 5.213400000000000256e-01 7.916769999999999641e+00 8.336880000000000734e+00 2.013370000000000104e+00 7.916780000000000150e+00 6.515869999999999607e+00 2.220650000000000013e+00 3.846359999999999779e+00 7.900870000000000282e+00 7.286099999999999799e-01 3.846389999999999976e+00 6.951900000000000190e+00 3.505440000000000111e+00 7.916780000000000150e+00 8.143840000000000856e+00 3.712689999999999824e+00 3.846410000000000107e+00 9.528790000000000759e+00 2.220650000000000013e+00 3.846359999999999779e+00 7.530739999999999768e+00 2.976290000000000102e+00 1.565578999999999965e+01 8.915739999999999554e+00 1.484259999999999913e+00 1.565584999999999916e+01 9.158709999999999241e+00 4.468340000000000423e+00 1.565586000000000055e+01 1.054367000000000054e+01 2.976280000000000037e+00 1.565581000000000067e+01 6.338840000000000252e+00 2.769019999999999815e+00 1.972623000000000104e+01 9.351760000000000517e+00 2.769019999999999815e+00 1.972624000000000066e+01 7.966770000000000351e+00 4.261059999999999626e+00 1.972623000000000104e+01 7.723799999999999777e+00 1.276990000000000069e+00 1.972623000000000104e+01 7.353699999999999903e+00 3.524659999999999904e+00 3.153568999999999889e+01 8.738690000000000069e+00 2.032630000000000159e+00 3.153566000000000003e+01 1.036663000000000068e+01 3.524659999999999904e+00 3.153567999999999927e+01 8.545609999999999928e+00 3.731920000000000126e+00 2.746524000000000143e+01 9.930609999999999715e+00 2.239910000000000068e+00 2.746528999999999954e+01 8.981659999999999755e+00 5.016709999999999781e+00 3.153567999999999927e+01 1.017359000000000080e+01 5.223980000000000068e+00 2.746529999999999916e+01 1.155854000000000070e+01 3.731939999999999813e+00 2.746524000000000143e+01 6.758840000000000181e+00 5.204729999999999634e+00 3.846359999999999779e+00 5.809899999999999842e+00 7.981539999999999857e+00 7.916789999999999772e+00 8.579850000000000421e+00 4.997460000000000235e+00 7.916780000000000150e+00 7.194869999999999877e+00 6.489499999999999602e+00 7.916769999999999641e+00 8.822810000000000485e+00 7.981539999999999857e+00 7.916780000000000150e+00 7.001800000000000246e+00 8.188819999999999766e+00 3.846350000000000158e+00 8.386789999999999523e+00 6.696790000000000020e+00 3.846389999999999976e+00 5.566919999999999646e+00 4.997460000000000235e+00 7.916789999999999772e+00 9.771760000000000446e+00 5.204720000000000013e+00 3.846340000000000092e+00 1.001473000000000013e+01 8.188819999999999766e+00 3.846350000000000158e+00 7.773710000000000342e+00 5.960359999999999658e+00 1.565578999999999965e+01 8.016669999999999519e+00 8.944449999999999790e+00 1.565579999999999927e+01 9.401680000000000703e+00 7.452429999999999666e+00 1.565584999999999916e+01 1.078663000000000061e+01 5.960359999999999658e+00 1.565579999999999927e+01 1.102960000000000029e+01 8.944459999999999411e+00 1.565578999999999965e+01 6.824760000000000382e+00 8.737190000000000012e+00 1.972624000000000066e+01 8.209740000000000038e+00 7.245160000000000267e+00 1.972623000000000104e+01 9.837690000000000268e+00 8.737190000000000012e+00 1.972623000000000104e+01 9.594720000000000582e+00 5.753090000000000259e+00 1.972623000000000104e+01 6.581809999999999938e+00 5.753090000000000259e+00 1.972623000000000104e+01 8.788579999999999615e+00 6.716009999999999813e+00 2.746525000000000105e+01 7.839649999999999785e+00 9.492820000000000036e+00 3.153568999999999889e+01 1.060960000000000036e+01 6.508740000000000414e+00 3.153568999999999889e+01 9.224629999999999441e+00 8.000790000000000290e+00 3.153566999999999965e+01 1.085257000000000005e+01 9.492829999999999657e+00 3.153569999999999851e+01 9.031539999999999679e+00 9.700089999999999435e+00 2.746525000000000105e+01 1.041655000000000086e+01 8.208059999999999690e+00 2.746528999999999954e+01 7.596669999999999590e+00 6.508740000000000414e+00 3.153568999999999889e+01 1.180150000000000077e+01 6.716000000000000192e+00 2.746524000000000143e+01 1.204448000000000008e+01 9.700089999999999435e+00 2.746524000000000143e+01 4.808110000000000106e+00 1.627129999999999965e+00 2.150440000000000129e+00 5.865200000000000413e-01 1.371019999999999905e+00 5.881540000000000212e+00 1.795199999999999907e+00 1.627129999999999965e+00 2.150450000000000195e+00 3.423140000000000072e+00 3.119139999999999802e+00 2.150419999999999998e+00 2.214480000000000004e+00 2.863059999999999938e+00 5.881669999999999732e+00 3.599429999999999907e+00 1.370999999999999996e+00 5.881529999999999703e+00 8.294799999999999951e-01 4.355089999999999684e+00 5.881529999999999703e+00 3.842410000000000103e+00 4.355089999999999684e+00 5.881529999999999703e+00 5.051090000000000302e+00 4.611209999999999809e+00 2.150450000000000195e+00 2.038159999999999972e+00 4.611209999999999809e+00 2.150430000000000064e+00 5.822989999999999888e+00 2.382779999999999898e+00 1.395988000000000007e+01 1.005900000000000016e+00 2.606949999999999878e+00 9.612890000000000157e+00 2.390899999999999803e+00 1.114950000000000108e+00 9.612970000000000681e+00 4.018819999999999837e+00 2.606949999999999878e+00 9.612869999999999138e+00 2.633859999999999868e+00 4.099029999999999951e+00 9.612970000000000681e+00 1.601380000000000026e+00 2.126650000000000151e+00 1.769097000000000008e+01 2.810060000000000002e+00 2.382760000000000211e+00 1.395988999999999969e+01 4.438019999999999854e+00 3.874789999999999957e+00 1.395986000000000082e+01 3.229369999999999852e+00 3.618710000000000093e+00 1.769109999999999872e+01 4.614309999999999690e+00 2.126660000000000217e+00 1.769097999999999971e+01 4.857289999999999885e+00 5.110739999999999839e+00 1.769097999999999971e+01 1.844359999999999999e+00 5.110730000000000217e+00 1.769098999999999933e+01 6.065949999999999953e+00 5.366859999999999964e+00 1.395988000000000007e+01 3.053040000000000198e+00 5.366850000000000342e+00 1.395988000000000007e+01 6.837869999999999671e+00 3.138399999999999856e+00 2.576932000000000045e+01 2.020779999999999799e+00 3.362610000000000099e+00 2.142231999999999914e+01 3.405769999999999964e+00 1.870579999999999909e+00 2.142241999999999891e+01 5.033699999999999619e+00 3.362610000000000099e+00 2.142232999999999876e+01 3.648740000000000094e+00 4.854659999999999975e+00 2.142242999999999853e+01 3.824939999999999785e+00 3.138419999999999987e+00 2.576932000000000045e+01 5.452899999999999636e+00 4.630429999999999602e+00 2.576931000000000083e+01 7.080829999999999735e+00 6.122489999999999988e+00 2.576932000000000045e+01 4.067910000000000359e+00 6.122499999999999609e+00 2.576932000000000045e+01 5.872150000000000425e+00 5.866380000000000372e+00 2.950041999999999831e+01 2.616270000000000095e+00 2.882289999999999797e+00 2.950043000000000148e+01 3.035660000000000025e+00 4.118249999999999744e+00 3.323176000000000130e+01 4.244239999999999569e+00 4.374349999999999739e+00 2.950056000000000012e+01 4.420639999999999681e+00 2.626230000000000064e+00 3.323187999999999676e+01 5.629179999999999851e+00 2.882289999999999797e+00 2.950043000000000148e+01 6.048580000000000290e+00 4.118249999999999744e+00 3.323178000000000054e+01 2.859230000000000160e+00 5.866369999999999862e+00 2.950044000000000111e+01 4.663610000000000255e+00 5.610310000000000130e+00 3.323185999999999751e+01 5.294059999999999988e+00 7.595299999999999940e+00 2.150440000000000129e+00 4.085379999999999789e+00 7.339170000000000194e+00 5.881529999999999703e+00 2.700429999999999886e+00 8.831229999999999691e+00 5.881660000000000110e+00 3.666119999999999823e+00 6.103220000000000312e+00 2.150409999999999933e+00 2.457450000000000134e+00 5.847150000000000070e+00 5.881660000000000110e+00 1.072449999999999903e+00 7.339179999999999815e+00 5.881529999999999703e+00 2.281120000000000037e+00 7.595290000000000319e+00 2.150440000000000129e+00 3.909089999999999954e+00 9.087310000000000443e+00 2.150399999999999867e+00 6.308919999999999639e+00 8.350929999999999964e+00 1.395988999999999969e+01 5.100240000000000329e+00 8.094829999999999970e+00 1.769097999999999971e+01 1.248879999999999990e+00 5.591039999999999566e+00 9.612880000000000535e+00 4.261790000000000411e+00 5.591050000000000075e+00 9.612880000000000535e+00 1.491849999999999898e+00 8.575129999999999697e+00 9.612890000000000157e+00 2.876840000000000064e+00 7.083099999999999952e+00 9.612980000000000302e+00 4.504760000000000097e+00 8.575120000000000076e+00 9.612890000000000157e+00 3.715289999999999981e+00 9.586869999999999337e+00 1.769109999999999872e+01 3.472339999999999982e+00 6.602780000000000094e+00 1.769110999999999834e+01 2.087320000000000064e+00 8.094820000000000348e+00 1.769097999999999971e+01 3.296009999999999884e+00 8.350929999999999964e+00 1.395988000000000007e+01 4.680979999999999919e+00 6.858880000000000088e+00 1.395984999999999943e+01 4.923969999999999736e+00 9.842959999999999710e+00 1.395986000000000082e+01 7.323789999999999800e+00 9.106590000000000629e+00 2.576932000000000045e+01 2.263739999999999863e+00 6.346680000000000099e+00 2.142231999999999914e+01 5.276679999999999815e+00 6.346680000000000099e+00 2.142232999999999876e+01 2.506730000000000125e+00 9.330769999999999342e+00 2.142231999999999914e+01 3.891709999999999781e+00 7.838759999999999728e+00 2.142241999999999891e+01 5.519650000000000389e+00 9.330780000000000740e+00 2.142231999999999914e+01 5.695879999999999832e+00 7.614519999999999733e+00 2.576931000000000083e+01 4.310870000000000424e+00 9.106569999999999609e+00 2.576933999999999969e+01 5.938839999999999897e+00 1.059859999999999935e+01 2.576930000000000121e+01 6.534519999999999662e+00 1.008639999999999937e+01 3.323178000000000054e+01 6.115129999999999733e+00 8.850450000000000372e+00 2.950043000000000148e+01 4.906579999999999941e+00 8.594400000000000261e+00 3.323187000000000069e+01 3.278630000000000155e+00 7.102319999999999744e+00 3.323176999999999737e+01 4.487210000000000143e+00 7.358430000000000248e+00 2.950055000000000049e+01 6.291540000000000354e+00 7.102339999999999876e+00 3.323178000000000054e+01 3.102189999999999781e+00 8.850459999999999994e+00 2.950043000000000148e+01 3.521580000000000155e+00 1.008641000000000076e+01 3.323178000000000054e+01 4.730179999999999829e+00 1.034251000000000076e+01 2.950056000000000012e+01 9.448999999999999844e+00 3.119159999999999933e+00 2.150419999999999998e+00 6.855330000000000368e+00 4.355089999999999684e+00 5.881529999999999703e+00 8.240320000000000533e+00 2.863070000000000004e+00 5.881649999999999601e+00 6.436079999999999579e+00 3.119159999999999933e+00 2.150409999999999933e+00 5.227400000000000269e+00 2.863070000000000004e+00 5.881660000000000110e+00 6.612359999999999793e+00 1.370999999999999996e+00 5.881540000000000212e+00 7.821039999999999992e+00 1.627129999999999965e+00 2.150430000000000064e+00 8.064019999999999300e+00 4.611209999999999809e+00 2.150430000000000064e+00 1.046387000000000000e+01 3.874789999999999957e+00 1.395986000000000082e+01 7.870210000000000150e+00 5.110730000000000217e+00 1.769097999999999971e+01 5.403810000000000002e+00 1.114950000000000108e+00 9.612980000000000302e+00 7.031749999999999723e+00 2.606970000000000010e+00 9.612869999999999138e+00 8.416750000000000398e+00 1.114950000000000108e+00 9.612980000000000302e+00 5.646790000000000198e+00 4.099029999999999951e+00 9.612970000000000681e+00 8.659720000000000084e+00 4.099020000000000330e+00 9.612980000000000302e+00 7.450949999999999740e+00 3.874789999999999957e+00 1.395986000000000082e+01 6.242280000000000051e+00 3.618700000000000028e+00 1.769112000000000151e+01 7.627239999999999576e+00 2.126650000000000151e+00 1.769097999999999971e+01 8.835919999999999774e+00 2.382769999999999833e+00 1.395988999999999969e+01 9.255219999999999558e+00 3.618710000000000093e+00 1.769112000000000151e+01 9.078889999999999461e+00 5.366839999999999833e+00 1.395988999999999969e+01 1.147874999999999979e+01 4.630429999999999602e+00 2.576931000000000083e+01 6.418689999999999785e+00 1.870589999999999975e+00 2.142241999999999891e+01 8.046620000000000772e+00 3.362600000000000033e+00 2.142233999999999838e+01 9.431620000000000559e+00 1.870589999999999975e+00 2.142241999999999891e+01 6.661660000000000359e+00 4.854669999999999597e+00 2.142241999999999891e+01 9.674580000000000624e+00 4.854669999999999597e+00 2.142242999999999853e+01 8.465830000000000410e+00 4.630429999999999602e+00 2.576930000000000121e+01 9.850789999999999935e+00 3.138399999999999856e+00 2.576933000000000007e+01 1.009375999999999962e+01 6.122489999999999988e+00 2.576933000000000007e+01 1.068947000000000003e+01 5.610319999999999752e+00 3.323187000000000069e+01 7.676540000000000141e+00 5.610310000000000130e+00 3.323187000000000069e+01 8.885089999999999932e+00 5.866380000000000372e+00 2.950041999999999831e+01 7.257159999999999833e+00 4.374349999999999739e+00 2.950055000000000049e+01 7.433569999999999567e+00 2.626219999999999999e+00 3.323187000000000069e+01 8.642099999999999227e+00 2.882299999999999862e+00 2.950044000000000111e+01 9.061500000000000554e+00 4.118249999999999744e+00 3.323176999999999737e+01 1.027008999999999972e+01 4.374349999999999739e+00 2.950055000000000049e+01 1.044650000000000034e+01 2.626230000000000064e+00 3.323187000000000069e+01 9.691959999999999908e+00 6.103240000000000443e+00 2.150409999999999933e+00 8.726269999999999527e+00 8.831220000000000070e+00 5.881669999999999732e+00 5.470379999999999576e+00 5.847150000000000070e+00 5.881660000000000110e+00 8.483299999999999841e+00 5.847150000000000070e+00 5.881660000000000110e+00 6.679039999999999644e+00 6.103240000000000443e+00 2.150399999999999867e+00 5.713350000000000151e+00 8.831239999999999313e+00 5.881660000000000110e+00 7.098300000000000054e+00 7.339179999999999815e+00 5.881540000000000212e+00 8.306979999999999364e+00 7.595299999999999940e+00 2.150440000000000129e+00 9.934929999999999595e+00 9.087310000000000443e+00 2.150409999999999933e+00 6.921999999999999709e+00 9.087310000000000443e+00 2.150419999999999998e+00 1.070683000000000007e+01 6.858880000000000088e+00 1.395984999999999943e+01 7.274720000000000297e+00 5.591039999999999566e+00 9.612880000000000535e+00 5.889750000000000263e+00 7.083109999999999573e+00 9.612980000000000302e+00 7.517689999999999984e+00 8.575120000000000076e+00 9.612869999999999138e+00 8.902680000000000149e+00 7.083099999999999952e+00 9.612970000000000681e+00 9.741149999999999309e+00 9.586880000000000734e+00 1.769109999999999872e+01 6.485240000000000116e+00 6.602789999999999715e+00 1.769112000000000151e+01 9.321849999999999525e+00 8.350929999999999964e+00 1.395988999999999969e+01 9.498170000000000002e+00 6.602789999999999715e+00 1.769109999999999872e+01 7.693920000000000314e+00 6.858869999999999578e+00 1.395986000000000082e+01 6.728209999999999802e+00 9.586869999999999337e+00 1.769110999999999834e+01 8.113170000000000215e+00 8.094820000000000348e+00 1.769097999999999971e+01 1.094979999999999976e+01 9.842959999999999710e+00 1.395984999999999943e+01 7.936890000000000001e+00 9.842950000000000088e+00 1.395986000000000082e+01 1.172171999999999947e+01 7.614519999999999733e+00 2.576930000000000121e+01 8.289600000000000080e+00 6.346680000000000099e+00 2.142232999999999876e+01 6.904620000000000424e+00 7.838750000000000107e+00 2.142242999999999853e+01 8.532560000000000144e+00 9.330759999999999721e+00 2.142232999999999876e+01 9.917559999999999931e+00 7.838750000000000107e+00 2.142241999999999891e+01 8.708800000000000097e+00 7.614519999999999733e+00 2.576931000000000083e+01 1.033672999999999931e+01 9.106579999999999231e+00 2.576933999999999969e+01 1.196468999999999916e+01 1.059858999999999973e+01 2.576929000000000158e+01 8.951750000000000540e+00 1.059858999999999973e+01 2.576931000000000083e+01 1.093243000000000009e+01 8.594400000000000261e+00 3.323187000000000069e+01 7.500119999999999898e+00 7.358430000000000248e+00 2.950056000000000012e+01 9.304470000000000240e+00 7.102319999999999744e+00 3.323178000000000054e+01 1.051304999999999978e+01 7.358430000000000248e+00 2.950056000000000012e+01 7.743089999999999584e+00 1.034251000000000076e+01 2.950056000000000012e+01 7.919509999999999827e+00 8.594400000000000261e+00 3.323185999999999751e+01 9.128049999999999997e+00 8.850459999999999994e+00 2.950044000000000111e+01 9.547449999999999548e+00 1.008641000000000076e+01 3.323178000000000054e+01 1.075601999999999947e+01 1.034252000000000038e+01 2.950055000000000049e+01