-2.006912496590000046e+03
-2.006911722020000070e+03
-2.006969751849999966e+03
-2.007086272289999897e+03
-2.007260343720000037e+03
-2.007490738559999954e+03
-2.007775589930000024e+03
-2.008112697710000020e+03
-2.008499255709999943e+03
-2.008932286620000013e+03
