1.988370000000000137e-01 8.666409999999999947e-01 -2.084255000000000191e+00 1.975729999999999986e-01 8.671959999999999669e-01 -2.084528000000000159e+00 -1.979529999999999901e-01 -8.678449999999999775e-01 2.085802999999999852e+00 -2.001219999999999943e-01 -8.682699999999999863e-01 2.087387000000000103e+00 1.982279999999999875e-01 8.663610000000000477e-01 -2.084318000000000115e+00 -1.976590000000000014e-01 -8.680550000000000210e-01 2.087028999999999801e+00 1.976900000000000046e-01 8.672039999999999749e-01 -2.084588000000000108e+00 1.983530000000000015e-01 8.677740000000000453e-01 -2.084562000000000026e+00 -1.986370000000000080e-01 -8.673929999999999696e-01 2.086901000000000117e+00 -1.986809999999999965e-01 -8.675329999999999986e-01 2.087153999999999954e+00 -1.979799999999999893e-01 -8.675610000000000266e-01 2.086103000000000041e+00 -2.000039999999999873e-01 -8.682870000000000310e-01 2.087943999999999800e+00 -1.975200000000000011e-01 -8.677589999999999471e-01 2.087432999999999872e+00 -1.985889999999999878e-01 -8.671079999999999899e-01 2.086945000000000050e+00 -1.989380000000000037e-01 -8.672349999999999781e-01 2.087432000000000176e+00 1.988969999999999905e-01 8.664650000000000407e-01 -2.084906999999999844e+00 1.980560000000000098e-01 8.664859999999999784e-01 -2.084855999999999820e+00 1.977250000000000119e-01 8.671010000000000106e-01 -2.084731000000000112e+00 1.974440000000000084e-01 8.673319999999999919e-01 -2.085157999999999845e+00 1.984150000000000080e-01 8.678529999999999855e-01 -2.085421999999999887e+00 1.989269999999999927e-01 8.662640000000000340e-01 -2.083889000000000102e+00 1.975750000000000006e-01 8.670259999999999634e-01 -2.084039999999999893e+00 -1.979319999999999968e-01 -8.677059999999999773e-01 2.085437000000000207e+00 -1.997359999999999969e-01 -8.681269999999999820e-01 2.086810999999999972e+00 1.981600000000000028e-01 8.663769999999999527e-01 -2.084738999999999898e+00 -1.976819999999999966e-01 -8.676420000000000243e-01 2.086660000000000181e+00 1.979740000000000111e-01 8.670470000000000121e-01 -2.084535999999999945e+00 1.983199999999999963e-01 8.675559999999999938e-01 -2.084858000000000100e+00 -1.983989999999999920e-01 -8.672849999999999726e-01 2.086520000000000152e+00 -1.985069999999999890e-01 -8.673990000000000311e-01 2.086632999999999960e+00 1.986290000000000000e-01 8.667300000000000004e-01 -2.084410000000000096e+00 -1.996979999999999866e-01 -8.678630000000000511e-01 2.086861999999999995e+00 1.979059999999999986e-01 8.673070000000000501e-01 -2.084818999999999978e+00 1.987049999999999927e-01 8.668810000000000127e-01 -2.084344000000000197e+00 -1.975240000000000051e-01 -8.678029999999999911e-01 2.086580999999999797e+00 1.981189999999999896e-01 8.673459999999999503e-01 -2.084710999999999981e+00 -1.993870000000000087e-01 -8.683410000000000295e-01 2.086786000000000030e+00 -1.982319999999999915e-01 -8.677599999999999758e-01 2.086495999999999906e+00 -1.994549999999999934e-01 -8.675019999999999953e-01 2.086291999999999813e+00 -1.974100000000000021e-01 -8.676150000000000251e-01 2.086637000000000075e+00 -1.994120000000000059e-01 -8.682980000000000143e-01 2.087037000000000031e+00 -1.983350000000000113e-01 -8.675380000000000313e-01 2.086418999999999802e+00 1.987430000000000030e-01 8.665009999999999657e-01 -2.084188999999999847e+00 1.978729999999999933e-01 8.672050000000000036e-01 -2.084902000000000033e+00 1.986719999999999875e-01 8.669769999999999976e-01 -2.084814000000000167e+00 1.980669999999999931e-01 8.669040000000000079e-01 -2.084487999999999897e+00 1.986549999999999983e-01 8.666300000000000114e-01 -2.084246999999999961e+00 -1.994249999999999912e-01 -8.676960000000000228e-01 2.086367000000000083e+00 1.976650000000000074e-01 8.672020000000000284e-01 -2.084926999999999975e+00 1.986620000000000053e-01 8.667639999999999789e-01 -2.083952000000000027e+00 -1.976829999999999976e-01 -8.676810000000000356e-01 2.086376000000000008e+00 1.984839999999999938e-01 8.669120000000000159e-01 -2.084137000000000128e+00 -1.993080000000000129e-01 -8.682649999999999535e-01 2.086453999999999809e+00 -1.979090000000000016e-01 -8.678550000000000431e-01 2.086324999999999985e+00 1.984150000000000080e-01 8.666960000000000219e-01 -2.084646999999999917e+00 1.979370000000000018e-01 8.676770000000000316e-01 -2.084652999999999867e+00 1.994279999999999942e-01 8.664610000000000367e-01 -2.084385000000000154e+00 -1.981529999999999958e-01 -8.682809999999999695e-01 2.087391000000000219e+00 -1.984720000000000095e-01 -8.673779999999999824e-01 2.085890000000000022e+00 1.978769999999999973e-01 8.676979999999999693e-01 -2.084598999999999869e+00 -1.984150000000000080e-01 -8.680400000000000338e-01 2.086171999999999915e+00 -1.987379999999999980e-01 -8.683170000000000055e-01 2.086953999999999976e+00 -1.983199999999999963e-01 -8.686019999999999852e-01 2.087438000000000127e+00 -1.983060000000000100e-01 -8.673600000000000199e-01 2.085719999999999796e+00 -1.983910000000000118e-01 -8.679120000000000168e-01 2.086465000000000014e+00 -1.985580000000000123e-01 -8.684490000000000265e-01 2.087127000000000177e+00 1.984259999999999913e-01 8.665249999999999897e-01 -2.084350999999999843e+00 1.992939999999999989e-01 8.664220000000000255e-01 -2.084258000000000166e+00 1.976189999999999891e-01 8.676300000000000123e-01 -2.084185999999999872e+00 1.978020000000000056e-01 8.677310000000000301e-01 -2.084919000000000189e+00 1.984420000000000073e-01 8.664469999999999672e-01 -2.083918000000000159e+00 1.980580000000000118e-01 8.671130000000000226e-01 -2.084286000000000083e+00 1.992700000000000027e-01 8.661440000000000250e-01 -2.084204000000000168e+00 -1.981729999999999881e-01 -8.682269999999999710e-01 2.086914999999999853e+00 -1.986719999999999875e-01 -8.673309999999999631e-01 2.085930999999999980e+00 1.978250000000000008e-01 8.676500000000000323e-01 -2.084386999999999990e+00 -1.984799999999999898e-01 -8.677799999999999958e-01 2.086161999999999850e+00 -1.988590000000000080e-01 -8.682309999999999750e-01 2.087324999999999875e+00 -1.985599999999999865e-01 -8.680170000000000385e-01 2.086219999999999963e+00 1.987180000000000057e-01 8.659249999999999448e-01 -2.084553000000000100e+00 1.985369999999999913e-01 8.661820000000000075e-01 -2.083949000000000051e+00 1.981320000000000026e-01 8.670879999999999699e-01 -2.084544999999999870e+00 1.987919999999999965e-01 8.665079999999999449e-01 -2.084506999999999888e+00 -1.982800000000000118e-01 -8.682870000000000310e-01 2.087581000000000131e+00 -1.991350000000000064e-01 -8.680369999999999475e-01 2.087042999999999981e+00 1.991459999999999897e-01 8.667070000000000052e-01 -2.084560000000000191e+00 -1.990449999999999997e-01 -8.678780000000000383e-01 2.087337000000000220e+00 -1.992649999999999977e-01 -8.676909999999999901e-01 2.087540000000000173e+00 -1.988679999999999892e-01 -8.681640000000000468e-01 2.086681000000000008e+00 -1.983530000000000015e-01 -8.680670000000000330e-01 2.087574000000000041e+00 -1.989070000000000005e-01 -8.674889999999999546e-01 2.087134999999999962e+00 -1.988620000000000110e-01 -8.675319999999999698e-01 2.087196000000000051e+00 -1.991239999999999954e-01 -8.673859999999999904e-01 2.087111999999999856e+00 1.986489999999999922e-01 8.658169999999999478e-01 -2.085102000000000011e+00 1.980669999999999931e-01 8.671210000000000306e-01 -2.085093999999999781e+00 1.988939999999999875e-01 8.663920000000000510e-01 -2.084960000000000147e+00 1.985550000000000093e-01 8.661510000000000042e-01 -2.084267000000000092e+00 1.990099999999999925e-01 8.663600000000000190e-01 -2.084414999999999907e+00 -1.985609999999999875e-01 -8.679959999999999898e-01 2.086313000000000084e+00 1.988989999999999925e-01 8.656890000000000418e-01 -2.084384000000000015e+00 1.983509999999999995e-01 8.665119999999999489e-01 -2.084475999999999996e+00 1.981999999999999873e-01 8.669059999999999544e-01 -2.084509000000000167e+00 1.986690000000000123e-01 8.664560000000000040e-01 -2.084932999999999925e+00 -1.981980000000000131e-01 -8.683319999999999927e-01 2.087543000000000148e+00 -1.990740000000000010e-01 -8.679010000000000336e-01 2.086929000000000034e+00 1.992440000000000044e-01 8.667179999999999884e-01 -2.084286999999999779e+00 -1.992889999999999939e-01 -8.676580000000000403e-01 2.087238000000000149e+00 -1.993209999999999982e-01 -8.678329999999999655e-01 2.087518000000000207e+00 -2.068800000000000153e-02 1.391007000000000104e+00 -2.060160000000000213e+00 5.730000000000000501e-04 -1.240000000000000054e-04 -1.389999999999999960e-03 -2.014499999999999971e-02 1.390328999999999926e+00 -2.060096999999999845e+00 -2.180199999999999846e-02 1.390956000000000081e+00 -2.059902000000000122e+00 1.869999999999999917e-04 3.750000000000000078e-04 4.449999999999999746e-04 -9.890000000000000787e-04 6.689999999999999983e-04 -1.708000000000000100e-03 1.446000000000000020e-03 -1.152000000000000029e-03 -1.015000000000000060e-03 -7.709999999999999840e-04 -1.149000000000000065e-03 -1.476000000000000098e-03 -2.076300000000000021e-02 1.390932000000000057e+00 -2.060522000000000187e+00 -1.999400000000000135e-02 1.390389000000000097e+00 -2.059817999999999927e+00 -1.988099999999999937e-02 1.389950999999999937e+00 -2.059346000000000121e+00 2.084000000000000088e-02 -1.389742999999999951e+00 2.057325000000000070e+00 1.984500000000000153e-02 -1.388757000000000019e+00 2.057729999999999837e+00 1.949800000000000144e-02 -1.389504999999999990e+00 2.057647999999999922e+00 2.052500000000000158e-02 -1.390986999999999973e+00 2.057868000000000031e+00 2.141999999999999807e-03 -4.209999999999999875e-04 -2.504999999999999848e-03 -2.016300000000000037e-02 1.389858000000000038e+00 -2.059382999999999964e+00 -2.166500000000000023e-02 1.391556000000000015e+00 -2.059260999999999786e+00 2.660000000000000146e-04 -6.290000000000000018e-04 -3.620000000000000171e-04 -8.790000000000000070e-04 -1.369999999999999961e-04 -2.654000000000000109e-03 -5.779999999999999548e-04 -1.546000000000000065e-03 -2.236000000000000140e-03 1.479000000000000063e-03 -4.539999999999999765e-04 -1.961000000000000069e-03 -2.041700000000000112e-02 1.392017000000000060e+00 -2.060122999999999927e+00 -2.018199999999999855e-02 1.391877999999999949e+00 -2.059184000000000125e+00 -1.964700000000000127e-02 1.391861999999999933e+00 -2.061497999999999831e+00 2.093499999999999875e-02 -1.390268999999999977e+00 2.056859000000000215e+00 1.995500000000000052e-02 -1.388525000000000009e+00 2.056734000000000062e+00 2.032199999999999979e-02 -1.389874000000000054e+00 2.056643999999999917e+00 2.103199999999999861e-02 -1.390763999999999889e+00 2.056566999999999812e+00 -2.060100000000000126e-02 1.390956000000000081e+00 -2.061382000000000048e+00 -2.149300000000000169e-02 1.392099999999999893e+00 -2.061183000000000209e+00 -1.980000000000000163e-02 1.391499000000000041e+00 -2.061609999999999943e+00 -2.005399999999999891e-02 1.390687000000000006e+00 -2.061071000000000097e+00 5.460000000000000443e-04 -8.140000000000000534e-04 4.800000000000000122e-05 -6.650000000000000095e-04 -3.499999999999999693e-05 2.500000000000000052e-04 2.056300000000000142e-02 -1.390930000000000000e+00 2.059670000000000112e+00 -1.188999999999999953e-03 5.450000000000000200e-04 2.266999999999999918e-03 2.080800000000000011e-02 -1.389461000000000057e+00 2.059609000000000023e+00 1.150000000000000035e-04 -1.430000000000000064e-04 2.329999999999999986e-04 2.073300000000000143e-02 -1.390854000000000035e+00 2.059690999999999939e+00 -5.540000000000000219e-04 1.489999999999999897e-04 4.330000000000000081e-04 2.157399999999999943e-02 -1.391399000000000052e+00 2.059703999999999979e+00 -2.088100000000000026e-02 1.391474000000000100e+00 -2.060201999999999867e+00 -9.640000000000000131e-04 -8.450000000000000479e-04 -1.394999999999999973e-03 -7.519999999999999558e-04 1.226000000000000093e-03 1.430000000000000064e-04 -2.189500000000000127e-02 1.392436000000000007e+00 -2.060459999999999958e+00 -1.830000000000000029e-04 5.379999999999999583e-04 6.160000000000000111e-04 9.020000000000000240e-04 -1.840000000000000001e-04 -1.193000000000000050e-03 -2.018199999999999855e-02 1.391553000000000040e+00 -2.060041000000000011e+00 -2.197999999999999954e-02 1.391883999999999899e+00 -2.060003000000000029e+00 -2.028100000000000042e-02 1.391292999999999891e+00 -2.058802000000000021e+00 -4.409999999999999858e-04 -4.809999999999999823e-04 -2.484999999999999796e-03 2.134799999999999892e-02 -1.391213999999999951e+00 2.057672999999999863e+00 1.968900000000000164e-02 -1.391407999999999978e+00 2.058232999999999979e+00 2.094800000000000134e-02 -1.390524000000000093e+00 2.057532999999999834e+00 1.943999999999999895e-02 -1.390301999999999927e+00 2.057887000000000022e+00 1.951200000000000156e-02 -1.389896000000000020e+00 2.057768999999999959e+00 9.799999999999999684e-05 1.397000000000000021e-03 -9.009999999999999997e-04 -6.470000000000000057e-04 1.562999999999999936e-03 -7.860000000000000233e-04 1.195000000000000099e-03 -7.129999999999999836e-04 -2.431000000000000001e-03 -2.083600000000000035e-02 1.391771000000000091e+00 -2.059133000000000102e+00 -2.143499999999999919e-02 1.392096999999999918e+00 -2.059455999999999953e+00 -2.182800000000000018e-02 1.391000000000000014e+00 -2.058734999999999982e+00 -1.898499999999999840e-02 1.390222000000000069e+00 -2.061221999999999888e+00 2.145499999999999838e-02 -1.391880000000000006e+00 2.056763999999999815e+00 2.058600000000000013e-02 -1.391555000000000097e+00 2.057148999999999894e+00 2.036900000000000169e-02 -1.390438000000000063e+00 2.057246999999999826e+00 2.042800000000000171e-02 -1.391173999999999911e+00 2.057218999999999909e+00 2.046600000000000155e-02 -1.390333000000000041e+00 2.057148999999999894e+00 -2.117899999999999991e-02 1.391331000000000095e+00 -2.061361999999999917e+00 -2.074799999999999908e-02 1.391061000000000103e+00 -2.061310000000000198e+00 -2.180299999999999946e-02 1.391985000000000028e+00 -2.061167999999999889e+00 2.085599999999999954e-02 -1.390349999999999975e+00 2.059737999999999847e+00 -3.499999999999999693e-05 -1.113000000000000057e-03 3.750000000000000078e-04 2.070900000000000171e-02 -1.390589999999999993e+00 2.059517000000000042e+00 2.055099999999999982e-02 -1.391177000000000108e+00 2.059394999999999865e+00 -1.838000000000000007e-03 1.410999999999999928e-03 1.913999999999999903e-03 2.125600000000000059e-02 -1.391337999999999964e+00 2.059902999999999818e+00 -6.560000000000000076e-04 -9.950000000000000077e-04 3.849999999999999798e-04 2.042599999999999971e-02 -1.390906999999999893e+00 2.059235999999999844e+00 -1.402999999999999950e-03 1.540000000000000028e-04 1.971000000000000096e-03 -1.904700000000000143e-02 1.390404999999999891e+00 -2.060114000000000001e+00 -1.689999999999999879e-04 -5.869999999999999567e-04 -1.263000000000000017e-03 4.809999999999999823e-04 -5.860000000000000408e-04 6.669999999999999497e-04 -2.137899999999999870e-02 1.390811999999999937e+00 -2.060254000000000030e+00 -1.704999999999999918e-03 5.699999999999999772e-04 8.970000000000000109e-04 5.670000000000000127e-04 8.239999999999999712e-04 -1.420999999999999954e-03 -1.872899999999999912e-02 1.390134999999999899e+00 -2.060058999999999862e+00 -1.904700000000000143e-02 1.390797000000000061e+00 -2.059835999999999778e+00 -2.004299999999999832e-02 1.391316999999999915e+00 -2.059541999999999984e+00 1.399999999999999979e-05 -3.800000000000000209e-05 -2.340000000000000066e-03 1.994500000000000092e-02 -1.389118999999999993e+00 2.057783000000000140e+00 2.079900000000000151e-02 -1.390352000000000032e+00 2.057889999999999997e+00 2.197700000000000001e-02 -1.389013999999999971e+00 2.058146999999999949e+00 1.918399999999999966e-02 -1.390748000000000095e+00 2.057805000000000106e+00 2.163899999999999851e-02 -1.390344999999999942e+00 2.057593999999999923e+00 -2.134000000000000133e-02 1.392136000000000040e+00 -2.060027999999999970e+00 -1.794000000000000022e-03 1.959999999999999937e-04 -1.569999999999999944e-04 -3.269999999999999795e-04 -2.300000000000000002e-05 -2.549000000000000050e-03 -1.968999999999999917e-02 1.389623000000000053e+00 -2.059505000000000141e+00 9.479999999999999495e-04 -1.810000000000000085e-04 -2.290000000000000098e-04 -1.981399999999999828e-02 1.391739000000000059e+00 -2.058876999999999846e+00 -2.008599999999999969e-02 1.391585000000000072e+00 -2.061688000000000187e+00 2.020100000000000021e-02 -1.389383999999999952e+00 2.056853999999999960e+00 2.051199999999999898e-02 -1.389984000000000108e+00 2.056862999999999886e+00 2.175500000000000003e-02 -1.389348000000000027e+00 2.057587999999999973e+00 1.982599999999999987e-02 -1.390787999999999913e+00 2.056582999999999828e+00 2.146400000000000044e-02 -1.390946999999999933e+00 2.057066999999999979e+00 -2.088900000000000132e-02 1.392225000000000046e+00 -2.061491999999999880e+00 -1.928500000000000006e-02 1.390217000000000036e+00 -2.061310999999999893e+00 -1.975000000000000019e-02 1.391402000000000028e+00 -2.060731999999999786e+00 2.021299999999999833e-02 -1.391049999999999898e+00 2.059753999999999863e+00 1.993199999999999833e-02 -1.390752999999999906e+00 2.059309999999999974e+00 1.165999999999999936e-03 -2.390000000000000089e-04 2.400000000000000061e-04 3.950000000000000061e-04 6.650000000000000095e-04 2.049000000000000040e-03 2.039300000000000140e-02 -1.389812999999999965e+00 2.059352000000000071e+00 1.415000000000000025e-03 -2.149999999999999947e-04 2.649999999999999903e-04 2.021799999999999986e-02 -1.390881000000000034e+00 2.059433999999999987e+00 -2.329999999999999986e-04 1.219999999999999974e-04 2.062000000000000031e-03 2.033400000000000138e-02 -1.389297000000000004e+00 2.059743000000000102e+00 -1.892999999999999891e-02 1.392014000000000085e+00 -2.060449000000000197e+00 1.392000000000000008e-03 1.056000000000000081e-03 -2.000000000000000164e-05 -1.304999999999999953e-03 2.130000000000000003e-04 2.640000000000000202e-04 -1.330000000000000073e-04 9.979999999999999722e-04 -2.300000000000000002e-05 -2.066199999999999981e-02 1.391898000000000080e+00 -2.060446000000000222e+00 -1.196000000000000014e-03 9.920000000000000432e-04 3.849999999999999798e-04 4.169999999999999987e-04 -7.699999999999999597e-04 -1.616000000000000032e-03 -1.890100000000000113e-02 1.391569000000000056e+00 -2.060046999999999962e+00 -1.940100000000000158e-02 1.392053999999999903e+00 -2.060709000000000124e+00 -2.056300000000000142e-02 1.392004999999999937e+00 -2.060467000000000048e+00 -2.029299999999999854e-02 1.392819999999999947e+00 -2.059304000000000023e+00 2.071299999999999877e-02 -1.391243999999999925e+00 2.057817000000000007e+00 1.978600000000000150e-02 -1.390681999999999974e+00 2.057787999999999951e+00 2.144499999999999879e-02 -1.389910999999999897e+00 2.057961000000000151e+00 2.217099999999999974e-02 -1.390668000000000015e+00 2.058028000000000191e+00 1.007999999999999998e-03 3.209999999999999963e-04 -1.293000000000000095e-03 -1.196999999999999930e-03 1.198999999999999979e-03 -8.069999999999999916e-04 -1.930099999999999871e-02 1.391426000000000052e+00 -2.058628000000000124e+00 8.009999999999999542e-04 9.590000000000000000e-04 -8.360000000000000460e-04 -2.059000000000000066e-02 1.392713000000000090e+00 -2.059366999999999948e+00 -1.436999999999999909e-03 1.119999999999999902e-03 -7.709999999999999840e-04 3.049999999999999868e-04 -5.550000000000000462e-04 -2.286999999999999970e-03 -2.015700000000000131e-02 1.390980000000000105e+00 -2.059524999999999828e+00 -2.058000000000000107e-02 1.390978999999999965e+00 -2.059244000000000074e+00 -2.071500000000000077e-02 1.392052000000000067e+00 -2.061344000000000065e+00 1.997200000000000017e-02 -1.391113999999999962e+00 2.057103999999999822e+00 2.026499999999999829e-02 -1.390970000000000040e+00 2.057103999999999822e+00 2.125499999999999959e-02 -1.390889999999999960e+00 2.057065999999999839e+00 2.107799999999999951e-02 -1.390358999999999901e+00 2.057034999999999947e+00 -2.037500000000000075e-02 1.392336000000000018e+00 -2.061792000000000069e+00 -1.995200000000000098e-02 1.391324999999999923e+00 -2.060626000000000069e+00 -2.112299999999999942e-02 1.392017999999999978e+00 -2.061697999999999809e+00 -1.940800000000000164e-02 1.390638999999999958e+00 -2.061294999999999877e+00 2.025899999999999923e-02 -1.390697999999999990e+00 2.059702999999999840e+00 9.870000000000000301e-04 4.440000000000000045e-04 2.017000000000000130e-03 1.956899999999999959e-02 -1.390684999999999949e+00 2.059569999999999901e+00 -1.219999999999999974e-04 7.799999999999999859e-04 1.768999999999999956e-03 7.280000000000000230e-04 1.299999999999999920e-05 2.239999999999999804e-03 2.058400000000000160e-02 -1.390960999999999892e+00 2.059670999999999808e+00 1.438000000000000042e-03 -1.342000000000000094e-03 4.270000000000000249e-04 2.052500000000000158e-02 -1.390849000000000002e+00 2.059355000000000047e+00 6.999999999999999387e-05 -1.849999999999999973e-04 1.539999999999999919e-03