-1.458082922349495476e-03 1.007771136098528685e-03 1.248429264537194161e-01 4.319790187598439172e-04 2.555601393620925491e-02 1.006655263548409188e-03 1.027892037371212980e-03 1.909037304801439227e-03 2.688014793185728325e-03 -9.882177052468093040e-04 3.414077503484537219e-03 5.411911359883633463e-03 -9.681251765856726437e-04 1.713044808177782230e-03 3.106936292819037493e-03 1.944923140230297737e-03 1.796025726614107563e-03 1.922053737005546825e-03 5.512821590127174771e-03 1.251506121185070632e-02 4.622047055045810579e-03 -6.089132919373571769e-03 1.334105468633614219e-02 3.520562901922018924e-03 5.638106809292770319e-04 -2.399935180975827382e-03 4.603056988913409829e-03 -2.711121250954472614e-05 -4.961259299462779093e-06 2.730998968887103900e-03 5.388249920027670704e-05 2.504087483310554868e-05 2.886001841799052791e-03 -3.412408423203127619e-05 -6.195678780720402208e-05 3.045999491680840329e-03 1.286577396404756992e-05 9.104674818098402707e-05 3.297999236128773461e-03 1.087260566394644051e-05 7.904436787856505115e-05 3.129999324976405223e-03 -3.313289712295722130e-05 2.004630216092246719e-05 3.263998369622434816e-03 1.408673971315264808e-04 -7.195396167129227511e-05 3.255006759413134332e-03 -8.213079059364616062e-05 -4.595441088876658822e-05 3.210997310082387441e-03 -6.612698706378964135e-05 7.904428639131541817e-05 3.119996189480165379e-03 -5.113696524013545269e-06 -5.696042585241422148e-05 2.791000601933752920e-03 -1.312664415237367271e-05 -2.955896877167924221e-06 3.109999510271174716e-03 1.087248029218850439e-05 -8.095563210530511004e-05 3.130001593418560261e-03 2.087680377007840950e-05 -1.995712860992930506e-05 3.025001135881107400e-03 5.874584509229451138e-06 6.043662911136913638e-06 3.080000156395362645e-03 -4.012482031148772034e-05 -1.395651373595413229e-05 3.064998566805424846e-03 4.787444666538618563e-05 3.804368673325385548e-05 3.084001412978960334e-03 -1.812980940371874044e-05 1.104521290443982604e-05 3.187999108105721811e-03 -3.312780542582751005e-05 7.404454410885360604e-05 3.139997604138477800e-03 -5.188519479231979131e-04 1.439488984299335016e-04 -3.633023172342437612e-03 1.121296369146066504e-04 -2.830453006564531281e-04 -3.188991423993124425e-03 4.191524899453300760e-04 2.999466611175041026e-04 -3.738987187816654196e-03 2.151167285233914564e-06 -4.530527570968712644e-04 -3.720993492572411375e-03 -2.988098390481221643e-05 3.795859596800251233e-05 -2.922001757664259049e-03 3.812387981595882384e-05 8.956841391743856985e-06 -3.041998577379690250e-03 1.681425675143520310e-04 1.609502745122346216e-04 -3.497995438265195239e-03 -1.718630423016729789e-04 1.209524830929248519e-04 -3.361008716371391425e-03 1.112722053936184657e-05 6.295571412577181860e-05 -3.123000442366600290e-03 -1.049060807213592593e-02 1.603387613245465387e-02 -9.316654520048359145e-03 6.238079908246547955e-03 1.374397104038789855e-02 -1.697940840933369593e-03 4.259389168310976845e-03 8.868614089621869962e-04 -9.539839136702921163e-03 -1.910554774704254161e-03 -3.141154374059920793e-03 -1.099403327497142958e-02 -1.207821304391686968e-03 2.872939513182416402e-03 -4.333089919474640561e-03 3.121274199535510781e-03 1.075902380620250703e-03 -6.712888159256761612e-03 -1.347861767863248845e-04 2.348693206409677506e-02 -4.799338485984312036e-03 -1.295843522416574058e-03 8.659467704306556121e-04 -3.826065048609566047e-03 1.437293034149194400e-03 2.348897489183075522e-03 -7.150974781055772188e-03 -2.986981542462027706e-05 5.195471125066162242e-05 -3.196001955898237264e-03 1.310028851653843260e-07 5.695440420436563377e-05 -3.216000805142929433e-03 3.512936151034144641e-05 9.295495808548085608e-05 -3.174999890350738412e-03 4.513075768926619037e-05 -4.804557430869473554e-05 -3.211997484043183429e-03 6.613269192423998680e-05 -2.204625711061717510e-05 -3.258996997483469202e-03 -1.008687777803767222e-04 2.495439822343117144e-05 -3.222004464254883335e-03 -2.487001592365470243e-05 3.954764051701253450e-06 -3.192001071765053835e-03 9.129838353439729453e-06 -7.804523420631077392e-05 -3.189998524681370712e-03 2.012962609582659811e-05 -1.410451861017359527e-04 -3.185997183556628538e-03 -1.389964572215950393e-04 -1.040011529768372617e-04 -8.900418562817036358e-05 1.269999866238795275e-04 8.699992890630833006e-05 2.003938080810968038e-06 -9.006165978068562546e-06 1.860022045864957469e-04 1.549969963042472916e-04 -1.659967328671807746e-04 -1.440010467651364333e-04 -8.300471798618941669e-05 3.600893507272080328e-05 2.199686687273598898e-05 -2.189988457565740477e-04 1.379975401551175476e-04 -7.299927155618385420e-05 5.900665439934089246e-05 -1.899807285895553942e-05 -1.390006939988283933e-04 -4.999880294056935760e-05 4.800266018550145307e-05 1.209990692028784382e-04 -6.299976084996123846e-05 -1.400027252207400239e-05 -3.599990396765241987e-05 5.999940301991596389e-06 -1.629145511878412516e-03 -1.557709905423856067e-01 5.781421495911314963e-04 1.582088995888203441e-03 4.959679103673684478e-04 -2.175942609761406885e-03 1.440916057898707711e-05 1.503857941554689187e-03 -1.001902074395069273e-02 -4.992760761984582803e-03 4.311921791274363550e-03 -5.792264448341462139e-03 3.309928598431996841e-03 4.242023424109573997e-03 1.835074642238755140e-03 1.688296940325443533e-03 -2.531047770447713359e-04 -7.296927669445877999e-03 -3.109074063237610326e-03 3.073029059924947508e-03 1.877829828860957864e-03 -8.860161484340037990e-04 1.165006634113405996e-03 4.189474038419696567e-04 3.990936062892642966e-03 5.454020622319749080e-03 1.675085189837779162e-03 7.599532401758172021e-05 -1.469984715798078822e-04 1.120051788117995236e-04 -9.000648394179766500e-05 -1.199767525967347638e-05 1.589965051087549597e-04 7.991635791100553594e-06 3.100291435875042278e-05 2.059998860646441597e-04 4.799244779902299787e-05 -2.399741468925381619e-05 1.850022946952011049e-04 -4.500542996370259500e-05 -6.999809328912822933e-05 1.319991598824354646e-04 -1.000594675153200113e-05 1.020021061333925376e-04 1.479981465220346192e-04 2.299803913699667186e-05 4.400067669862550539e-05 4.900031271243280364e-05 -4.200553878298022789e-05 -9.980389338912413994e-07 1.359983037755911834e-04 1.999777911799374556e-05 -2.799925005615078101e-05 5.400121134420109858e-05 2.164438526679106703e-02 -1.831315608620633084e-02 -9.812858991392978819e-03 8.403391008574763801e-03 -7.847947639578309233e-04 1.494035333368890633e-02 -3.003289970000885475e-02 -1.790301627954320532e-02 -2.807969142212849573e-03 6.291188700705554419e-04 3.300796712208322464e-02 -2.284442364077970272e-03 -2.677761914386282477e-04 3.727046619145731211e-05 1.906198858523549741e-02 -3.599164974955476885e-04 -1.862681129476961416e-03 2.247101177349878492e-02 -1.484901153972316564e-04 1.343752259386055484e-02 3.685180347316961702e-02 6.520303145448743624e-04 9.363373596504515409e-04 2.383101329817591610e-02 -4.929698973126939859e-04 1.340338440451661851e-03 2.384396094497286123e-02 6.716173314339557779e-05 -2.437082600127701631e-04 2.058100620926009428e-02 7.714882935524021912e-05 -1.857037593096533008e-04 2.089900579386271690e-02 -1.418607584914183283e-04 1.542998431587068561e-04 2.114099205533177817e-02 2.131645922503002419e-04 7.929071825832570831e-05 2.051700757514625384e-02 -2.984138185796017707e-05 -1.137070640294148547e-04 2.066000041615485144e-02 -1.698422368794843889e-04 -1.137066566762503898e-04 2.068099471521617216e-02 4.213018558307585535e-05 -2.169719595765847158e-05 2.136000204305117320e-02 -2.586034993698820990e-05 -1.037004603097683021e-04 2.112600043682742734e-02 1.145493493650278298e-06 -7.770250887802257467e-05 2.098300116780149258e-02 9.138622660063289968e-06 -1.170010492343362600e-05 2.115300055767788123e-02 2.815037999703916177e-05 -2.570421718180919838e-05 2.086400153013139372e-02 -3.586118150916719452e-05 3.029987359597785743e-05 2.114899812977723281e-02 -3.786093010532562376e-05 9.129980426684384599e-05 2.114399718349660451e-02 -4.185247118727711458e-05 -2.670316992630204512e-05 2.093399869378450781e-02 8.114677619621193103e-05 5.229701731311393236e-05 2.095400258238728705e-02 -1.849691991895697013e-06 3.829584883500963794e-05 2.086699940112620583e-02 -7.685124561518034806e-05 -2.170356785580154050e-05 2.090399719769378550e-02 4.714588425881738998e-05 5.297341673424000930e-06 2.097500186421371107e-02 -8.101488847255773954e-05 -1.133429533639412586e-04 -2.419400171453181536e-02 -5.641426965595239349e-04 1.647019997837984278e-04 -2.105002532704380522e-02 6.348669141314150846e-04 1.666977150115001147e-04 -2.128597653087946004e-02 1.987318605971159755e-05 -6.123041994147482075e-04 -2.145499052956805278e-02 4.687538888054584206e-05 -6.073049861570980644e-04 -2.150898950094369197e-02 -7.612285110223328721e-05 2.769467057575752256e-05 -2.154000351245936515e-02 -3.981262016726683142e-04 6.469609945380485672e-05 -2.145701714922782985e-02 -1.101095488299871390e-04 -3.013100239750621701e-04 -2.187300023217456438e-02 5.328518954530801592e-04 5.397031256905619008e-04 -2.090998597306157822e-02 5.339536312233275021e-04 1.026667836325811326e-03 -2.339899283459776283e-02 -1.397557017833671832e-04 1.238591843009172189e-02 -5.761181301342043967e-03 -3.962262889974848081e-04 -3.452691664722148013e-04 -1.900701125718062129e-02 1.274970038531714331e-03 5.556614149214524935e-04 -2.381095598233749777e-02 -4.831670068840954570e-04 -1.290289996326647723e-03 -2.048100140053796259e-02 -7.890544881719806745e-04 -1.853329085877404928e-03 -2.325500587645886949e-02 9.462140923511400126e-03 -3.340465557158655972e-05 -2.801861424611497287e-02 -8.363813112540838951e-03 -8.444069171982483604e-04 -2.916332863677734838e-02 -1.099144609945312823e-03 2.687031133882302478e-04 -2.100104858723210455e-02 1.585130751811658701e-05 -3.296412734503385043e-06 -2.090599932721975973e-02 1.484908822067470737e-05 -2.929564634793651692e-05 -2.085199899936895571e-02 -3.915342156370345641e-05 -6.229473921730017526e-05 -2.079100073048542954e-02 3.484858003961334807e-05 1.017045506458645046e-04 -2.083700004225289351e-02 -1.011521794392256953e-04 1.197049265096390068e-04 -2.081800583550605030e-02 3.885028793587445275e-05 4.670393787422389721e-05 -2.087999909955252573e-02 1.208460043189462572e-04 -1.529465183449280107e-05 -2.077599488151807630e-02 -4.515408795508217050e-05 -2.929449350012883137e-05 -2.077400144269253568e-02 -8.815239329062591570e-05 2.704958875870015855e-06 -2.081500364733944800e-02
-1.443079909803349084e-03 1.006770075196830247e-03 1.247689270787787491e-01 4.469805269856303516e-04 2.555801339988568108e-02 9.696558460400440515e-04 9.918927124167350572e-04 1.887037091968997351e-03 2.671013639161687846e-03 -9.832179472252758519e-04 3.417077584636026358e-03 5.417911520949020981e-03 -9.601238993583713138e-04 1.732044362400241401e-03 3.075936349237158324e-03 1.928922677426431805e-03 1.777025895099710283e-03 1.933053354839209129e-03 5.528820719329776562e-03 1.254706151123104012e-02 4.644047252870545789e-03 -6.073131996103290839e-03 1.337605436189317695e-02 3.498563057254366719e-03 5.258096143832190162e-04 -2.409934782598285950e-03 4.629055583274532815e-03 -3.111080216353307240e-05 -9.613979458350326903e-07 2.720998749301941320e-03 1.888147964115845671e-05 2.304125668305670848e-05 2.911000444901550455e-03 3.875935325788693287e-06 -3.695681756357822813e-05 3.046000684629096133e-03 1.586626104449253416e-05 8.904657569865281278e-05 3.285999386658008947e-03 -6.127953443685099114e-06 9.304457967722343042e-05 3.143998434220233399e-03 -1.913185482279044052e-05 5.104593675096704818e-05 3.238998500226922695e-03 1.258680392745258059e-04 -8.395417676986600042e-05 3.239006318748402675e-03 -8.413155412647355916e-05 -8.495415411852608742e-05 3.228997781556727700e-03 -4.712593695701630013e-05 6.804390289281795083e-05 3.093997119155904134e-03 -3.211635589339627132e-05 -7.295948315320642552e-05 2.855999729254564412e-03 8.709681943503088286e-07 1.604492864889690376e-05 3.168999810930738393e-03 2.387084752993841186e-05 -8.595507517193655964e-05 3.170002193641258299e-03 8.873748149883383700e-06 -2.195605587912156562e-05 3.100000675516701061e-03 2.387222738702050946e-05 1.204447112873230480e-05 3.138000804250185710e-03 -4.112708578980269890e-05 5.044281001666946265e-06 3.120998256655010440e-03 9.872393416286108630e-06 1.604442537909378679e-05 3.134000177450934222e-03 -9.131561190877318597e-06 1.004581550277585267e-05 3.230999488731172743e-03 -1.412869659862543608e-05 8.004484114281976538e-05 3.161998292747616578e-03 -5.168510661457177300e-04 1.779485991268109726e-04 -3.654023572925171881e-03 7.613006374220235761e-05 -2.580454142490654296e-04 -3.198993244378555388e-03 4.471550866779670742e-04 3.399457459884714879e-04 -3.801986614684796373e-03 2.815238183670846914e-05 -4.620532027877249015e-04 -3.750992306202523274e-03 -4.388071686951073371e-05 1.495850768769981740e-05 -2.929002001661107444e-03 2.612564100848744109e-05 2.195624114118655901e-05 -3.084999250300856158e-03 1.581440624401241524e-04 1.459497577652798942e-04 -3.534995632772859261e-03 -1.928616961707960685e-04 7.195201749574152775e-05 -3.395008876767248787e-03 4.212980940879445385e-05 4.095478247620559607e-05 -3.186998868049925257e-03 -1.050960739867165018e-02 1.600987590631148053e-02 -9.333654953462403037e-03 6.273080734387922325e-03 1.375897072942561597e-02 -1.717939628351440465e-03 4.248389180048720709e-03 8.498614034010794002e-04 -9.540839060054104662e-03 -1.944553189697588056e-03 -3.145154900371666812e-03 -1.103303460273305850e-02 -1.148820465733043110e-03 2.903939183426610185e-03 -4.353087956436499720e-03 3.098273364789857522e-03 1.101902696360243863e-03 -6.691889464477709243e-03 -1.687868924946287451e-04 2.350893234591673944e-02 -4.781340182420779246e-03 -1.264843277308690854e-03 9.189466752634550904e-04 -3.831064537679997658e-03 1.446291891607489168e-03 2.345897879114682526e-03 -7.122974372060849810e-03 -4.887056718974556731e-05 2.795498133032460488e-05 -3.178002389344817755e-03 1.313030435151509312e-05 4.895463504874326608e-05 -3.199000162365560253e-03 4.412777025582246198e-05 8.895550397293784954e-05 -3.135999467188278940e-03 4.212941233688703583e-05 -5.004510409225766031e-05 -3.178997577880886619e-03 3.613205295285759931e-05 -6.046006777619667838e-06 -3.242998445968090990e-03 -6.986959849147624500e-05 1.695465750726408939e-05 -3.202003088504982997e-03 -3.487099008122702205e-05 7.955112148348283740e-06 -3.168001535706929054e-03 1.912872791243660223e-05 -9.204485923438617120e-05 -3.162997919009270017e-03 2.212875687718610749e-05 -1.070448757596578266e-04 -3.163997584179335104e-03 -1.430017376067296505e-04 -8.699930673316920372e-05 4.099541034559843244e-05 1.349973781327631472e-04 8.400083002154474978e-05 6.600430632141601392e-05 2.992967145717407378e-06 2.230025070983098802e-04 1.769969603567612482e-04 -1.840027798845026308e-04 -1.179989201823175815e-04 6.599418027813018452e-05 -5.996717253471101429e-06 3.199887047112190804e-05 -8.000069793916978931e-05 1.929943599661122452e-04 -7.799820875243003622e-05 1.370089648624609651e-04 -1.003116798013057149e-06 -1.839989642193930186e-04 7.300256791976616317e-05 3.099993736335358244e-05 7.600001825284359027e-05 3.000184833572313081e-06 -2.200238999911939466e-05 -3.599916045832429284e-05 5.799961448684354796e-05 -1.613138816794195286e-03 -1.548659926391407204e-01 4.311299703854625616e-04 1.559093457177490637e-03 4.729663688211087564e-04 -2.285943220150167109e-03 2.140840330728296841e-05 1.472858191277157591e-03 -1.000102001941080045e-02 -4.925752787832652670e-03 4.250918945794083907e-03 -5.989260855017735155e-03 3.275935291540873259e-03 4.209021111398534784e-03 1.670073725749395260e-03 1.659298764167988242e-03 -2.641053923375652609e-04 -7.341928694353330211e-03 -3.069066235466622831e-03 3.085026306467181755e-03 1.685831287740323804e-03 -8.610119495067767659e-04 1.171005154224974724e-03 3.159483368924153636e-04 3.932937376169103744e-03 5.415020199870210216e-03 1.642083380991866222e-03 3.799561298786512288e-05 -1.939985552435787301e-04 1.040042977817768325e-04 -4.400576432557912893e-05 -2.899796647609939081e-05 1.409986193066180673e-04 4.993186294821817990e-06 -1.699763622144132756e-05 1.670004444709915809e-04 2.599306724917832616e-05 -1.299761013137775751e-05 1.700012428950224014e-04 -1.100487711377743878e-05 -3.999830422536161017e-05 1.190001190705542036e-04 -1.800463976014900048e-05 1.070016587074061127e-04 1.159977498961555013e-04 1.399966954520870208e-05 4.600011663357476006e-05 8.999917906429756942e-06 -2.700318714817458751e-05 3.800114118289906867e-05 7.899836170856982566e-05 1.100053249609069531e-05 3.999807075299316619e-06 -1.299960876960680589e-05 2.160638283777643193e-02 -1.808715514909635738e-02 -9.748863743019357819e-03 8.275397755044601802e-03 -7.497970030740863049e-04 1.477534762535162582e-02 -2.987290239077634857e-02 -1.775101542657003470e-02 -2.738964781960860195e-03 7.201180750427106040e-04 3.277296726352119105e-02 -2.269435326720047920e-03 -2.877679916952642896e-04 -4.773239623250933071e-05 1.885898897611707967e-02 -4.249097378071761471e-04 -1.914683446268794845e-03 2.230400986404240324e-02 -6.048185540828446104e-05 1.342951964686524280e-02 3.664880717021533341e-02 5.920360773645827251e-04 9.113353933857996176e-04 2.368901120950094030e-02 -5.249658604629588729e-04 1.295337047732538979e-03 2.374396027999794295e-02 7.166835001800690877e-06 -3.327100136040397199e-04 2.045400502794803704e-02 1.301547150273199875e-04 -2.097058565863577518e-04 2.075400829246894230e-02 -1.318538367654651852e-04 1.012974109310811849e-04 2.096999321412071349e-02 1.511676079946043538e-04 8.228971764692807357e-05 2.044300500798898468e-02 2.716349132477873787e-05 -2.670878164881918622e-05 2.054200150388763718e-02 -1.688367003882378927e-04 -6.370857146666113614e-05 2.054599404717434227e-02 -2.886514948362562449e-05 -4.469877080907951267e-05 2.124499947806620520e-02 3.514464773069227822e-05 -6.570223776739899269e-05 2.100400238215774373e-02 -8.475354053141033605e-07 -6.770493171604547616e-05 2.081200094474111584e-02 -6.285189324236468945e-05 -1.670335197352597039e-05 2.091999769688201311e-02 3.415721560817025910e-05 -3.270660374870147966e-05 2.069600187385701312e-02 2.914717169413853841e-05 3.729691625247257870e-05 2.094400067757877862e-02 -4.684962694295458075e-05 6.929586988891612805e-05 2.086599712917816887e-02 -6.884528000626320720e-05 4.294355919485081151e-06 2.075799715497446407e-02 1.181551380420492231e-04 7.029408189239209329e-05 2.074900383404960219e-02 -8.839372399931617611e-06 8.292253158984811236e-06 2.061299954164927048e-02 -4.584205761894542813e-05 -4.070679630851904251e-05 2.067799872962776397e-02 4.515413729523053832e-05 4.029447932122454763e-05 2.077300128673806659e-02 1.972947706022267899e-06 -4.633876502076760988e-05 -2.389399928489020428e-02 -5.391601023761527023e-04 1.937080483023864328e-04 -2.062202472057553942e-02 5.388503878185806409e-04 1.747035463632420676e-04 -2.087998055388069069e-02 7.286121095449609212e-05 -6.163000726413045026e-04 -2.116098831492519219e-02 6.186138557560052370e-05 -6.533001349135935309e-04 -2.116598823827265871e-02 -1.391362051847469777e-04 -7.330065812401428981e-05 -2.121400464622192131e-02 -3.301381798996375614e-04 1.087002286552627057e-04 -2.116201500430577725e-02 -1.251269444269845687e-04 -2.593039441379384104e-04 -2.144500143885126262e-02 4.668393002310814040e-04 5.237075583086885523e-04 -2.060098843408078237e-02 4.739394697736866837e-04 9.346727888320512188e-04 -2.305299397381623330e-02 -1.147628585354515087e-04 1.229492087746238659e-02 -5.587178993306041522e-03 -3.592386243084021266e-04 -3.412648995714808136e-04 -1.870400980750185072e-02 1.160957599205706542e-03 5.826658425856734392e-04 -2.350496100759859666e-02 -4.201795692780192185e-04 -1.212285650546706360e-03 -2.017099994127807133e-02 -7.380693113336550884e-04 -1.750323936747489499e-03 -2.288900526034532909e-02 9.325125399557121844e-03 -9.739916073242324145e-05 -2.763861891784796104e-02 -8.286826375844946052e-03 -8.294023555291760033e-04 -2.883732571424131239e-02 -1.046160052590516983e-03 2.567084452750864111e-04 -2.062204625924615384e-02 -2.915201042193851097e-05 -2.829522909573165936e-05 -2.082500080528926906e-02 2.847249524239100992e-06 -3.729499895038480638e-05 -2.080699937463889593e-02 2.284542958204506194e-05 -7.329439078368273660e-05 -2.076299804986329184e-02 3.684571704197795518e-05 8.570554152716060423e-05 -2.076699973403204821e-02 -9.515387796588025619e-05 1.347055172775551729e-04 -2.077600580388643675e-02 4.884739755649444035e-05 9.970495084018548366e-05 -2.080799944383240896e-02 8.384481482596537328e-05 -2.629421170646057212e-05 -2.074699623226113065e-02 -3.915646308952851857e-05 -4.629367588426089764e-05 -2.071600095739936295e-02 -4.615477939997816311e-05 2.370576247784085579e-05 -2.075600223485158172e-02