8.763168300000000244e+00 0.000000000000000000e+00 0.000000000000000000e+00 0.000000000000000000e+00 1.821390407000000167e+01 0.000000000000000000e+00 0.000000000000000000e+00 0.000000000000000000e+00 2.038533480999999981e+01
8.763168300000000244e+00 0.000000000000000000e+00 0.000000000000000000e+00 0.000000000000000000e+00 1.821390407000000167e+01 0.000000000000000000e+00 0.000000000000000000e+00 0.000000000000000000e+00 2.038533480999999981e+01
8.763168300000000244e+00 0.000000000000000000e+00 0.000000000000000000e+00 0.000000000000000000e+00 1.821390407000000167e+01 0.000000000000000000e+00 0.000000000000000000e+00 0.000000000000000000e+00 2.038533480999999981e+01
8.763168300000000244e+00 0.000000000000000000e+00 0.000000000000000000e+00 0.000000000000000000e+00 1.821390407000000167e+01 0.000000000000000000e+00 0.000000000000000000e+00 0.000000000000000000e+00 2.038533480999999981e+01
8.763168300000000244e+00 0.000000000000000000e+00 0.000000000000000000e+00 0.000000000000000000e+00 1.821390407000000167e+01 0.000000000000000000e+00 0.000000000000000000e+00 0.000000000000000000e+00 2.038533480999999981e+01
