1.000000000000000048e-04 1.819837000000000060e+01 4.645940000000000403e+00 1.460630000000000095e+00 3.020099999999999785e+00 4.645909999999999762e+00 1.000000000000000048e-04 4.063010000000000232e+00 2.122570000000000068e+00 1.460630000000000095e+00 1.027369999999999894e+00 2.122560000000000002e+00 2.921159999999999979e+00 1.819837000000000060e+01 4.645940000000000403e+00 4.381680000000000241e+00 3.020099999999999785e+00 4.645909999999999762e+00 2.921159999999999979e+00 4.063010000000000232e+00 2.122570000000000068e+00 4.381689999999999863e+00 1.027369999999999894e+00 2.122560000000000002e+00 5.842209999999999681e+00 1.819837000000000060e+01 4.645940000000000403e+00 7.302740000000000009e+00 3.020099999999999785e+00 4.645909999999999762e+00 5.842220000000000191e+00 4.063010000000000232e+00 2.122570000000000068e+00 7.302740000000000009e+00 1.027369999999999894e+00 2.122560000000000002e+00 1.000000000000000048e-04 6.055760000000000254e+00 4.645940000000000403e+00 1.460630000000000095e+00 9.091409999999999769e+00 4.645909999999999762e+00 1.000000000000000048e-04 1.013430999999999926e+01 2.122570000000000068e+00 1.460630000000000095e+00 7.098670000000000258e+00 2.122560000000000002e+00 2.921159999999999979e+00 6.055760000000000254e+00 4.645940000000000403e+00 4.381680000000000241e+00 9.091409999999999769e+00 4.645909999999999762e+00 2.921159999999999979e+00 1.013430999999999926e+01 2.122570000000000068e+00 4.381689999999999863e+00 7.098670000000000258e+00 2.122560000000000002e+00 5.842209999999999681e+00 6.055760000000000254e+00 4.645940000000000403e+00 7.302740000000000009e+00 9.091409999999999769e+00 4.645909999999999762e+00 5.842220000000000191e+00 1.013430999999999926e+01 2.122570000000000068e+00 7.302740000000000009e+00 7.098670000000000258e+00 2.122560000000000002e+00 1.000000000000000048e-04 1.212706000000000017e+01 4.645940000000000403e+00 1.460630000000000095e+00 1.516271000000000058e+01 4.645909999999999762e+00 1.000000000000000048e-04 1.620561000000000007e+01 2.122570000000000068e+00 1.460630000000000095e+00 1.316996999999999929e+01 2.122560000000000002e+00 2.921159999999999979e+00 1.212706000000000017e+01 4.645940000000000403e+00 4.381680000000000241e+00 1.516271000000000058e+01 4.645909999999999762e+00 2.921159999999999979e+00 1.620561000000000007e+01 2.122570000000000068e+00 4.381689999999999863e+00 1.316996999999999929e+01 2.122560000000000002e+00 5.842209999999999681e+00 1.212706000000000017e+01 4.645940000000000403e+00 7.302740000000000009e+00 1.516271000000000058e+01 4.645909999999999762e+00 5.842220000000000191e+00 1.620561000000000007e+01 2.122570000000000068e+00 7.302740000000000009e+00 1.316996999999999929e+01 2.122560000000000002e+00 1.000000000000000048e-04 1.819837000000000060e+01 1.144105000000000061e+01 1.460630000000000095e+00 3.020099999999999785e+00 1.144101999999999997e+01 1.000000000000000048e-04 4.063010000000000232e+00 8.917680000000000717e+00 1.460630000000000095e+00 1.027369999999999894e+00 8.917669999999999320e+00 2.921159999999999979e+00 1.819837000000000060e+01 1.144105000000000061e+01 4.381680000000000241e+00 3.020099999999999785e+00 1.144101999999999997e+01 2.921159999999999979e+00 4.063010000000000232e+00 8.917680000000000717e+00 4.381689999999999863e+00 1.027369999999999894e+00 8.917669999999999320e+00 5.842209999999999681e+00 1.819837000000000060e+01 1.144105000000000061e+01 7.302740000000000009e+00 3.020099999999999785e+00 1.144101999999999997e+01 5.842220000000000191e+00 4.063010000000000232e+00 8.917680000000000717e+00 7.302740000000000009e+00 1.027369999999999894e+00 8.917669999999999320e+00 1.000000000000000048e-04 6.055760000000000254e+00 1.144105000000000061e+01 1.460630000000000095e+00 9.091409999999999769e+00 1.144101999999999997e+01 1.000000000000000048e-04 1.013430999999999926e+01 8.917680000000000717e+00 1.460630000000000095e+00 7.098670000000000258e+00 8.917669999999999320e+00 2.921159999999999979e+00 6.055760000000000254e+00 1.144105000000000061e+01 4.381680000000000241e+00 9.091409999999999769e+00 1.144101999999999997e+01 2.921159999999999979e+00 1.013430999999999926e+01 8.917680000000000717e+00 4.381689999999999863e+00 7.098670000000000258e+00 8.917669999999999320e+00 5.842209999999999681e+00 6.055760000000000254e+00 1.144105000000000061e+01 7.302740000000000009e+00 9.091409999999999769e+00 1.144101999999999997e+01 5.842220000000000191e+00 1.013430999999999926e+01 8.917680000000000717e+00 7.302740000000000009e+00 7.098670000000000258e+00 8.917669999999999320e+00 1.000000000000000048e-04 1.212706000000000017e+01 1.144105000000000061e+01 1.460630000000000095e+00 1.516271000000000058e+01 1.144101999999999997e+01 1.000000000000000048e-04 1.620561000000000007e+01 8.917680000000000717e+00 1.460630000000000095e+00 1.316996999999999929e+01 8.917669999999999320e+00 2.921159999999999979e+00 1.212706000000000017e+01 1.144105000000000061e+01 4.381680000000000241e+00 1.516271000000000058e+01 1.144101999999999997e+01 2.921159999999999979e+00 1.620561000000000007e+01 8.917680000000000717e+00 4.381689999999999863e+00 1.316996999999999929e+01 8.917669999999999320e+00 5.842209999999999681e+00 1.212706000000000017e+01 1.144105000000000061e+01 7.302740000000000009e+00 1.516271000000000058e+01 1.144101999999999997e+01 5.842220000000000191e+00 1.620561000000000007e+01 8.917680000000000717e+00 7.302740000000000009e+00 1.316996999999999929e+01 8.917669999999999320e+00 1.000000000000000048e-04 1.819837000000000060e+01 1.823616000000000170e+01 1.460630000000000095e+00 3.020099999999999785e+00 1.823612999999999928e+01 1.000000000000000048e-04 4.063010000000000232e+00 1.571279000000000003e+01 1.460630000000000095e+00 1.027369999999999894e+00 1.571278000000000041e+01 2.921159999999999979e+00 1.819837000000000060e+01 1.823616000000000170e+01 4.381680000000000241e+00 3.020099999999999785e+00 1.823612999999999928e+01 2.921159999999999979e+00 4.063010000000000232e+00 1.571279000000000003e+01 4.381689999999999863e+00 1.027369999999999894e+00 1.571278000000000041e+01 5.842209999999999681e+00 1.819837000000000060e+01 1.823616000000000170e+01 7.302740000000000009e+00 3.020099999999999785e+00 1.823612999999999928e+01 5.842220000000000191e+00 4.063010000000000232e+00 1.571279000000000003e+01 7.302740000000000009e+00 1.027369999999999894e+00 1.571278000000000041e+01 1.000000000000000048e-04 6.055760000000000254e+00 1.823616000000000170e+01 1.460630000000000095e+00 9.091409999999999769e+00 1.823612999999999928e+01 1.000000000000000048e-04 1.013430999999999926e+01 1.571279000000000003e+01 1.460630000000000095e+00 7.098670000000000258e+00 1.571278000000000041e+01 2.921159999999999979e+00 6.055760000000000254e+00 1.823616000000000170e+01 4.381680000000000241e+00 9.091409999999999769e+00 1.823612999999999928e+01 2.921159999999999979e+00 1.013430999999999926e+01 1.571279000000000003e+01 4.381689999999999863e+00 7.098670000000000258e+00 1.571278000000000041e+01 5.842209999999999681e+00 6.055760000000000254e+00 1.823616000000000170e+01 7.302740000000000009e+00 9.091409999999999769e+00 1.823612999999999928e+01 5.842220000000000191e+00 1.013430999999999926e+01 1.571279000000000003e+01 7.302740000000000009e+00 7.098670000000000258e+00 1.571278000000000041e+01 1.000000000000000048e-04 1.212706000000000017e+01 1.823616000000000170e+01 1.460630000000000095e+00 1.516271000000000058e+01 1.823612999999999928e+01 1.000000000000000048e-04 1.620561000000000007e+01 1.571279000000000003e+01 1.460630000000000095e+00 1.316996999999999929e+01 1.571278000000000041e+01 2.921159999999999979e+00 1.212706000000000017e+01 1.823616000000000170e+01 4.381680000000000241e+00 1.516271000000000058e+01 1.823612999999999928e+01 2.921159999999999979e+00 1.620561000000000007e+01 1.571279000000000003e+01 4.381689999999999863e+00 1.316996999999999929e+01 1.571278000000000041e+01 5.842209999999999681e+00 1.212706000000000017e+01 1.823616000000000170e+01 7.302740000000000009e+00 1.516271000000000058e+01 1.823612999999999928e+01 5.842220000000000191e+00 1.620561000000000007e+01 1.571279000000000003e+01 7.302740000000000009e+00 1.316996999999999929e+01 1.571278000000000041e+01 1.399999999999999877e-04 2.023730000000000029e+00 3.384300000000000086e+00 1.299999999999999886e-04 4.077860000000000262e+00 5.620289999999999786e+00 1.460660000000000069e+00 3.005220000000000002e+00 1.148249999999999993e+00 1.299999999999999886e-04 1.818339999999999890e+01 1.148269999999999902e+00 1.460669999999999913e+00 5.059319999999999595e+00 3.384279999999999955e+00 1.460660000000000069e+00 1.042249999999999899e+00 5.620260000000000034e+00 2.921199999999999797e+00 2.023730000000000029e+00 3.384300000000000086e+00 2.921190000000000175e+00 4.077860000000000262e+00 5.620289999999999786e+00 4.381709999999999994e+00 3.005220000000000002e+00 1.148249999999999993e+00 2.921180000000000110e+00 1.818339999999999890e+01 1.148269999999999902e+00 4.381730000000000125e+00 5.059319999999999595e+00 3.384279999999999955e+00 4.381709999999999994e+00 1.042249999999999899e+00 5.620260000000000034e+00 5.842249999999999943e+00 2.023730000000000029e+00 3.384300000000000086e+00 5.842240000000000322e+00 4.077860000000000262e+00 5.620289999999999786e+00 7.302769999999999762e+00 3.005220000000000002e+00 1.148249999999999993e+00 5.842240000000000322e+00 1.818339999999999890e+01 1.148269999999999902e+00 7.302780000000000271e+00 5.059319999999999595e+00 3.384279999999999955e+00 7.302769999999999762e+00 1.042249999999999899e+00 5.620260000000000034e+00 1.399999999999999877e-04 8.095029999999999504e+00 3.384300000000000086e+00 1.299999999999999886e-04 1.014916999999999980e+01 5.620289999999999786e+00 1.460660000000000069e+00 9.076520000000000366e+00 1.148249999999999993e+00 1.299999999999999886e-04 6.040790000000000326e+00 1.148269999999999902e+00 1.460669999999999913e+00 1.113062000000000040e+01 3.384279999999999955e+00 1.460660000000000069e+00 7.113550000000000040e+00 5.620260000000000034e+00 2.921199999999999797e+00 8.095029999999999504e+00 3.384300000000000086e+00 2.921190000000000175e+00 1.014916999999999980e+01 5.620289999999999786e+00 4.381709999999999994e+00 9.076520000000000366e+00 1.148249999999999993e+00 2.921180000000000110e+00 6.040790000000000326e+00 1.148269999999999902e+00 4.381730000000000125e+00 1.113062000000000040e+01 3.384279999999999955e+00 4.381709999999999994e+00 7.113550000000000040e+00 5.620260000000000034e+00 5.842249999999999943e+00 8.095029999999999504e+00 3.384300000000000086e+00 5.842240000000000322e+00 1.014916999999999980e+01 5.620289999999999786e+00 7.302769999999999762e+00 9.076520000000000366e+00 1.148249999999999993e+00 5.842240000000000322e+00 6.040790000000000326e+00 1.148269999999999902e+00 7.302780000000000271e+00 1.113062000000000040e+01 3.384279999999999955e+00 7.302769999999999762e+00 7.113550000000000040e+00 5.620260000000000034e+00 1.399999999999999877e-04 1.416633999999999993e+01 3.384300000000000086e+00 1.299999999999999886e-04 1.622046999999999883e+01 5.620289999999999786e+00 1.460660000000000069e+00 1.514783000000000079e+01 1.148249999999999993e+00 1.299999999999999886e-04 1.211209000000000024e+01 1.148269999999999902e+00 1.460669999999999913e+00 1.720192000000000121e+01 3.384279999999999955e+00 1.460660000000000069e+00 1.318485000000000085e+01 5.620260000000000034e+00 2.921199999999999797e+00 1.416633999999999993e+01 3.384300000000000086e+00 2.921190000000000175e+00 1.622046999999999883e+01 5.620289999999999786e+00 4.381709999999999994e+00 1.514783000000000079e+01 1.148249999999999993e+00 2.921180000000000110e+00 1.211209000000000024e+01 1.148269999999999902e+00 4.381730000000000125e+00 1.720192000000000121e+01 3.384279999999999955e+00 4.381709999999999994e+00 1.318485000000000085e+01 5.620260000000000034e+00 5.842249999999999943e+00 1.416633999999999993e+01 3.384300000000000086e+00 5.842240000000000322e+00 1.622046999999999883e+01 5.620289999999999786e+00 7.302769999999999762e+00 1.514783000000000079e+01 1.148249999999999993e+00 5.842240000000000322e+00 1.211209000000000024e+01 1.148269999999999902e+00 7.302780000000000271e+00 1.720192000000000121e+01 3.384279999999999955e+00 7.302769999999999762e+00 1.318485000000000085e+01 5.620260000000000034e+00 1.399999999999999877e-04 2.023730000000000029e+00 1.017941000000000074e+01 1.299999999999999886e-04 4.077860000000000262e+00 1.241539999999999999e+01 1.460660000000000069e+00 3.005220000000000002e+00 7.943369999999999820e+00 1.299999999999999886e-04 1.818339999999999890e+01 7.943380000000000329e+00 1.460669999999999913e+00 5.059319999999999595e+00 1.017938999999999972e+01 1.460660000000000069e+00 1.042249999999999899e+00 1.241536999999999935e+01 2.921199999999999797e+00 2.023730000000000029e+00 1.017941000000000074e+01 2.921190000000000175e+00 4.077860000000000262e+00 1.241539999999999999e+01 4.381709999999999994e+00 3.005220000000000002e+00 7.943369999999999820e+00 2.921180000000000110e+00 1.818339999999999890e+01 7.943380000000000329e+00 4.381730000000000125e+00 5.059319999999999595e+00 1.017938999999999972e+01 4.381709999999999994e+00 1.042249999999999899e+00 1.241536999999999935e+01 5.842249999999999943e+00 2.023730000000000029e+00 1.017941000000000074e+01 5.842240000000000322e+00 4.077860000000000262e+00 1.241539999999999999e+01 7.302769999999999762e+00 3.005220000000000002e+00 7.943369999999999820e+00 5.842240000000000322e+00 1.818339999999999890e+01 7.943380000000000329e+00 7.302780000000000271e+00 5.059319999999999595e+00 1.017938999999999972e+01 7.302769999999999762e+00 1.042249999999999899e+00 1.241536999999999935e+01 1.399999999999999877e-04 8.095029999999999504e+00 1.017941000000000074e+01 1.299999999999999886e-04 1.014916999999999980e+01 1.241539999999999999e+01 1.460660000000000069e+00 9.076520000000000366e+00 7.943369999999999820e+00 1.299999999999999886e-04 6.040790000000000326e+00 7.943380000000000329e+00 1.460669999999999913e+00 1.113062000000000040e+01 1.017938999999999972e+01 1.460660000000000069e+00 7.113550000000000040e+00 1.241536999999999935e+01 2.921199999999999797e+00 8.095029999999999504e+00 1.017941000000000074e+01 2.921190000000000175e+00 1.014916999999999980e+01 1.241539999999999999e+01 4.381709999999999994e+00 9.076520000000000366e+00 7.943369999999999820e+00 2.921180000000000110e+00 6.040790000000000326e+00 7.943380000000000329e+00 4.381730000000000125e+00 1.113062000000000040e+01 1.017938999999999972e+01 4.381709999999999994e+00 7.113550000000000040e+00 1.241536999999999935e+01 5.842249999999999943e+00 8.095029999999999504e+00 1.017941000000000074e+01 5.842240000000000322e+00 1.014916999999999980e+01 1.241539999999999999e+01 7.302769999999999762e+00 9.076520000000000366e+00 7.943369999999999820e+00 5.842240000000000322e+00 6.040790000000000326e+00 7.943380000000000329e+00 7.302780000000000271e+00 1.113062000000000040e+01 1.017938999999999972e+01 7.302769999999999762e+00 7.113550000000000040e+00 1.241536999999999935e+01 1.399999999999999877e-04 1.416633999999999993e+01 1.017941000000000074e+01 1.299999999999999886e-04 1.622046999999999883e+01 1.241539999999999999e+01 1.460660000000000069e+00 1.514783000000000079e+01 7.943369999999999820e+00 1.299999999999999886e-04 1.211209000000000024e+01 7.943380000000000329e+00 1.460669999999999913e+00 1.720192000000000121e+01 1.017938999999999972e+01 1.460660000000000069e+00 1.318485000000000085e+01 1.241536999999999935e+01 2.921199999999999797e+00 1.416633999999999993e+01 1.017941000000000074e+01 2.921190000000000175e+00 1.622046999999999883e+01 1.241539999999999999e+01 4.381709999999999994e+00 1.514783000000000079e+01 7.943369999999999820e+00 2.921180000000000110e+00 1.211209000000000024e+01 7.943380000000000329e+00 4.381730000000000125e+00 1.720192000000000121e+01 1.017938999999999972e+01 4.381709999999999994e+00 1.318485000000000085e+01 1.241536999999999935e+01 5.842249999999999943e+00 1.416633999999999993e+01 1.017941000000000074e+01 5.842240000000000322e+00 1.622046999999999883e+01 1.241539999999999999e+01 7.302769999999999762e+00 1.514783000000000079e+01 7.943369999999999820e+00 5.842240000000000322e+00 1.211209000000000024e+01 7.943380000000000329e+00 7.302780000000000271e+00 1.720192000000000121e+01 1.017938999999999972e+01 7.302769999999999762e+00 1.318485000000000085e+01 1.241536999999999935e+01 1.399999999999999877e-04 2.023730000000000029e+00 1.697451999999999828e+01 1.299999999999999886e-04 4.077860000000000262e+00 1.921051999999999893e+01 1.460660000000000069e+00 3.005220000000000002e+00 1.473847999999999914e+01 1.299999999999999886e-04 1.818339999999999890e+01 1.473849000000000053e+01 1.460669999999999913e+00 5.059319999999999595e+00 1.697450999999999866e+01 1.460660000000000069e+00 1.042249999999999899e+00 1.921049000000000007e+01 2.921199999999999797e+00 2.023730000000000029e+00 1.697451999999999828e+01 2.921190000000000175e+00 4.077860000000000262e+00 1.921051999999999893e+01 4.381709999999999994e+00 3.005220000000000002e+00 1.473847999999999914e+01 2.921180000000000110e+00 1.818339999999999890e+01 1.473849000000000053e+01 4.381730000000000125e+00 5.059319999999999595e+00 1.697450999999999866e+01 4.381709999999999994e+00 1.042249999999999899e+00 1.921049000000000007e+01 5.842249999999999943e+00 2.023730000000000029e+00 1.697451999999999828e+01 5.842240000000000322e+00 4.077860000000000262e+00 1.921051999999999893e+01 7.302769999999999762e+00 3.005220000000000002e+00 1.473847999999999914e+01 5.842240000000000322e+00 1.818339999999999890e+01 1.473849000000000053e+01 7.302780000000000271e+00 5.059319999999999595e+00 1.697450999999999866e+01 7.302769999999999762e+00 1.042249999999999899e+00 1.921049000000000007e+01 1.399999999999999877e-04 8.095029999999999504e+00 1.697451999999999828e+01 1.299999999999999886e-04 1.014916999999999980e+01 1.921051999999999893e+01 1.460660000000000069e+00 9.076520000000000366e+00 1.473847999999999914e+01 1.299999999999999886e-04 6.040790000000000326e+00 1.473849000000000053e+01 1.460669999999999913e+00 1.113062000000000040e+01 1.697450999999999866e+01 1.460660000000000069e+00 7.113550000000000040e+00 1.921049000000000007e+01 2.921199999999999797e+00 8.095029999999999504e+00 1.697451999999999828e+01 2.921190000000000175e+00 1.014916999999999980e+01 1.921051999999999893e+01 4.381709999999999994e+00 9.076520000000000366e+00 1.473847999999999914e+01 2.921180000000000110e+00 6.040790000000000326e+00 1.473849000000000053e+01 4.381730000000000125e+00 1.113062000000000040e+01 1.697450999999999866e+01 4.381709999999999994e+00 7.113550000000000040e+00 1.921049000000000007e+01 5.842249999999999943e+00 8.095029999999999504e+00 1.697451999999999828e+01 5.842240000000000322e+00 1.014916999999999980e+01 1.921051999999999893e+01 7.302769999999999762e+00 9.076520000000000366e+00 1.473847999999999914e+01 5.842240000000000322e+00 6.040790000000000326e+00 1.473849000000000053e+01 7.302780000000000271e+00 1.113062000000000040e+01 1.697450999999999866e+01 7.302769999999999762e+00 7.113550000000000040e+00 1.921049000000000007e+01 1.399999999999999877e-04 1.416633999999999993e+01 1.697451999999999828e+01 1.299999999999999886e-04 1.622046999999999883e+01 1.921051999999999893e+01 1.460660000000000069e+00 1.514783000000000079e+01 1.473847999999999914e+01 1.299999999999999886e-04 1.211209000000000024e+01 1.473849000000000053e+01 1.460669999999999913e+00 1.720192000000000121e+01 1.697450999999999866e+01 1.460660000000000069e+00 1.318485000000000085e+01 1.921049000000000007e+01 2.921199999999999797e+00 1.416633999999999993e+01 1.697451999999999828e+01 2.921190000000000175e+00 1.622046999999999883e+01 1.921051999999999893e+01 4.381709999999999994e+00 1.514783000000000079e+01 1.473847999999999914e+01 2.921180000000000110e+00 1.211209000000000024e+01 1.473849000000000053e+01 4.381730000000000125e+00 1.720192000000000121e+01 1.697450999999999866e+01 4.381709999999999994e+00 1.318485000000000085e+01 1.921049000000000007e+01 5.842249999999999943e+00 1.416633999999999993e+01 1.697451999999999828e+01 5.842240000000000322e+00 1.622046999999999883e+01 1.921051999999999893e+01 7.302769999999999762e+00 1.514783000000000079e+01 1.473847999999999914e+01 5.842240000000000322e+00 1.211209000000000024e+01 1.473849000000000053e+01 7.302780000000000271e+00 1.720192000000000121e+01 1.697450999999999866e+01 7.302769999999999762e+00 1.318485000000000085e+01 1.921049000000000007e+01