-2.772764304180000181e+03
-2.772729004110000005e+03
-2.772622855850000178e+03
-2.772446701509999912e+03
-2.772201830259999952e+03
