5.820000000000000520e-04 5.205000000000000425e-03 -9.478000000000000314e-03 5.649999999999999641e-04 5.804000000000000131e-03 -9.282999999999999585e-03 4.139999999999999800e-04 -6.288000000000000186e-03 9.769999999999999171e-03 4.189999999999999931e-04 -6.119000000000000307e-03 9.133000000000000493e-03 8.469999999999999881e-04 4.993000000000000042e-03 -9.301999999999999505e-03 5.999999999999999474e-04 5.866999999999999819e-03 -8.694000000000000339e-03 2.599999999999999772e-04 -6.838000000000000328e-03 9.008000000000000382e-03 4.119999999999999856e-04 -5.708000000000000400e-03 8.737999999999999240e-03 2.460000000000000164e-04 5.093000000000000305e-03 -9.294000000000000178e-03 5.180000000000000143e-04 5.799999999999999600e-03 -9.282000000000000320e-03 6.800000000000000488e-04 -6.839999999999999726e-03 8.991999999999999993e-03 5.360000000000000181e-04 -5.960000000000000020e-03 9.175000000000000863e-03 5.879999999999999810e-04 4.832000000000000357e-03 -8.963000000000000481e-03 2.220000000000000022e-04 5.236000000000000203e-03 -8.711999999999999258e-03 4.440000000000000045e-04 -5.850000000000000165e-03 8.994000000000000258e-03 7.069999999999999462e-04 -5.897000000000000332e-03 8.715000000000000524e-03 8.549999999999999658e-04 5.826999999999999715e-03 -9.122999999999999166e-03 5.710000000000000015e-04 5.483000000000000027e-03 -8.892000000000000598e-03 4.270000000000000249e-04 -6.023999999999999841e-03 9.468000000000000721e-03 4.209999999999999875e-04 -6.433000000000000350e-03 9.702000000000000554e-03 2.730000000000000222e-04 5.806999999999999662e-03 -9.154000000000000678e-03 8.859999999999999603e-04 5.259999999999999919e-03 -8.755999999999999894e-03 5.019999999999999506e-04 -6.104000000000000051e-03 9.395999999999999838e-03 1.369999999999999961e-04 -5.864000000000000289e-03 8.696000000000000604e-03 5.599999999999999509e-04 5.605999999999999872e-03 -8.595999999999999475e-03 2.660000000000000146e-04 6.008999999999999585e-03 -8.791000000000000203e-03 4.200000000000000174e-04 -5.900999999999999995e-03 9.672000000000000042e-03 6.830000000000000134e-04 -6.787999999999999763e-03 8.647999999999999438e-03 5.680000000000000370e-04 5.623999999999999659e-03 -9.152000000000000413e-03 5.090000000000000123e-04 4.882000000000000055e-03 -8.656999999999999765e-03 8.700000000000000051e-05 -5.386000000000000162e-03 8.682000000000000481e-03 4.249999999999999763e-04 -6.231999999999999693e-03 9.419000000000000289e-03 5.609999999999999752e-04 5.616999999999999597e-03 -9.119000000000000369e-03 9.759999999999999796e-04 5.918999999999999782e-03 -8.835000000000000839e-03 7.299999999999999632e-04 -5.499000000000000415e-03 8.654999999999999499e-03 2.449999999999999921e-04 -6.765000000000000180e-03 8.666000000000000092e-03 5.720000000000000258e-04 4.995000000000000308e-03 -9.403999999999999165e-03 5.010000000000000347e-04 5.759000000000000230e-03 -9.350999999999999937e-03 3.460000000000000076e-04 -5.730999999999999983e-03 9.844000000000000319e-03 4.260000000000000006e-04 -6.091000000000000060e-03 9.383000000000000715e-03 8.289999999999999843e-04 4.815999999999999968e-03 -9.199999999999999845e-03 7.069999999999999462e-04 5.885999999999999739e-03 -8.803999999999999326e-03 4.000000000000000192e-04 -6.349999999999999742e-03 9.034999999999999629e-03 4.840000000000000010e-04 -5.586999999999999952e-03 8.939000000000000765e-03 2.750000000000000166e-04 4.878999999999999657e-03 -9.202999999999999375e-03 4.719999999999999803e-04 5.899999999999999863e-03 -9.268000000000000196e-03 6.009999999999999717e-04 -6.416999999999999961e-03 9.086000000000000326e-03 4.620000000000000083e-04 -5.967000000000000082e-03 9.407000000000000431e-03 6.160000000000000111e-04 4.743999999999999953e-03 -9.268000000000000196e-03 1.939999999999999993e-04 5.337999999999999863e-03 -8.784000000000000141e-03 4.910000000000000085e-04 -5.932999999999999906e-03 9.062000000000000610e-03 7.780000000000000457e-04 -5.852000000000000431e-03 8.514000000000000734e-03 9.340000000000000429e-04 5.913999999999999986e-03 -9.384999999999999246e-03 5.090000000000000123e-04 5.394999999999999622e-03 -9.051999999999999283e-03 4.240000000000000062e-04 -6.414999999999999696e-03 9.464999999999999455e-03 3.680000000000000003e-04 -6.333000000000000088e-03 9.577000000000000443e-03 1.900000000000000105e-04 5.683999999999999816e-03 -9.391999999999999307e-03 9.890000000000000787e-04 5.408999999999999746e-03 -8.788999999999999937e-03 4.640000000000000027e-04 -6.364999999999999998e-03 9.403999999999999165e-03 1.010000000000000020e-04 -5.891999999999999668e-03 8.550000000000000308e-03 4.949999999999999973e-04 5.608000000000000138e-03 -8.486000000000000487e-03 2.599999999999999772e-04 6.041000000000000363e-03 -8.652999999999999234e-03 4.090000000000000211e-04 -6.100999999999999653e-03 9.943000000000000449e-03 5.689999999999999529e-04 -6.845999999999999655e-03 8.871000000000000413e-03 6.099999999999999737e-04 5.785000000000000211e-03 -8.959999999999999215e-03 5.810000000000000277e-04 4.811000000000000172e-03 -8.508999999999999203e-03 8.399999999999999535e-05 -5.662999999999999631e-03 8.895999999999999394e-03 4.600000000000000139e-04 -6.143000000000000023e-03 9.695000000000000492e-03 5.730000000000000501e-04 5.895000000000000066e-03 -8.961999999999999481e-03 9.250000000000000409e-04 5.895000000000000066e-03 -8.644999999999999907e-03 7.230000000000000098e-04 -5.669999999999999693e-03 8.914999999999999314e-03 3.429999999999999889e-04 -6.836000000000000063e-03 8.906000000000000721e-03 5.659999999999999884e-04 5.157000000000000126e-03 -9.372999999999999388e-03 6.210000000000000242e-04 5.525999999999999662e-03 -9.086999999999999592e-03 4.560000000000000251e-04 -6.106000000000000316e-03 1.013999999999999971e-02 5.439999999999999957e-04 -6.447999999999999739e-03 9.504999999999999560e-03 8.869999999999999846e-04 5.014000000000000228e-03 -9.216999999999999499e-03 5.699999999999999772e-04 5.598999999999999810e-03 -8.463999999999999302e-03 2.570000000000000127e-04 -6.641000000000000202e-03 9.457000000000000128e-03 4.159999999999999744e-04 -6.197000000000000251e-03 9.112999999999999573e-03 2.190000000000000106e-04 4.952999999999999937e-03 -9.176000000000000129e-03 5.050000000000000235e-04 5.530000000000000193e-03 -9.029999999999999832e-03 6.350000000000000392e-04 -6.645999999999999998e-03 9.398000000000000104e-03 4.180000000000000230e-04 -6.383999999999999918e-03 9.598000000000000628e-03 6.109999999999999980e-04 4.415999999999999787e-03 -9.207999999999999172e-03 2.439999999999999949e-04 5.087999999999999641e-03 -9.147000000000000616e-03 4.189999999999999931e-04 -5.525000000000000397e-03 9.211999999999999703e-03 7.579999999999999932e-04 -5.662000000000000366e-03 8.921999999999999376e-03 9.529999999999999626e-04 5.427000000000000400e-03 -9.332000000000000017e-03 5.980000000000000072e-04 5.232999999999999804e-03 -9.379999999999999449e-03 4.789999999999999879e-04 -5.821999999999999918e-03 9.723000000000000739e-03 4.220000000000000118e-04 -6.061000000000000415e-03 9.908999999999999406e-03 1.620000000000000075e-04 5.407999999999999613e-03 -9.346000000000000141e-03 8.429999999999999993e-04 5.147999999999999798e-03 -9.169999999999999332e-03 4.879999999999999898e-04 -5.942000000000000233e-03 9.646000000000000060e-03 6.999999999999999387e-05 -5.521999999999999999e-03 8.923000000000000376e-03 5.720000000000000258e-04 5.505000000000000344e-03 -9.176000000000000129e-03 2.149999999999999947e-04 6.120999999999999705e-03 -9.152999999999999678e-03 3.680000000000000003e-04 -6.150000000000000085e-03 9.971999999999999961e-03 6.229999999999999644e-04 -6.614000000000000087e-03 8.928000000000000172e-03 5.649999999999999641e-04 5.537000000000000255e-03 -9.655999999999999653e-03 6.229999999999999644e-04 5.105000000000000163e-03 -8.978999999999999135e-03 1.379999999999999933e-04 -5.501999999999999946e-03 8.951999999999999888e-03 4.029999999999999837e-04 -5.987000000000000134e-03 9.660999999999999449e-03 5.590000000000000351e-04 5.517000000000000202e-03 -9.664000000000000715e-03 9.340000000000000429e-04 6.124000000000000103e-03 -9.138000000000000289e-03 7.219999999999999855e-04 -5.578999999999999758e-03 8.975000000000000339e-03 3.429999999999999889e-04 -6.565999999999999788e-03 8.914999999999999314e-03 -6.099999999999999737e-04 -9.940000000000000918e-04 -4.319999999999999838e-04 -2.910000000000000260e-04 -5.112000000000000224e-03 1.002600000000000019e-02 -6.109999999999999980e-04 4.568000000000000012e-03 -9.761999999999999844e-03 -7.899999999999999579e-05 5.414000000000000409e-03 -9.150000000000000147e-03 -9.049999999999999885e-04 1.730000000000000038e-04 7.010000000000000172e-04 -7.020000000000000415e-04 -6.245999999999999816e-03 9.922000000000000264e-03 -1.000000000000000048e-04 -1.020000000000000073e-03 -3.490000000000000263e-04 1.250000000000000026e-04 -5.151000000000000197e-03 9.511999999999999622e-03 -1.669999999999999935e-04 4.309000000000000330e-03 -9.851000000000000381e-03 2.000000000000000096e-04 4.904999999999999638e-03 -9.164000000000000271e-03 -4.310000000000000137e-04 1.600000000000000131e-04 5.540000000000000219e-04 -1.430000000000000064e-04 -5.788999999999999875e-03 1.021400000000000086e-02 -9.550000000000000112e-04 -9.430000000000000448e-04 -2.010000000000000068e-04 -7.110000000000000434e-04 -5.187999999999999903e-03 9.388999999999999777e-03 1.210000000000000002e-04 4.664999999999999876e-03 -9.749999999999999986e-03 -6.920000000000000153e-04 4.962000000000000265e-03 -9.284999999999999851e-03 -3.390000000000000001e-04 2.210000000000000050e-04 8.130000000000000291e-04 2.500000000000000120e-05 -6.268000000000000134e-03 9.719000000000000208e-03 -6.260000000000000373e-04 3.970000000000000005e-04 -2.400000000000000061e-04 -2.030000000000000012e-04 -3.765999999999999816e-03 9.823999999999999400e-03 -6.599999999999999964e-04 4.916000000000000231e-03 -9.754000000000000517e-03 -1.800000000000000113e-04 6.217999999999999569e-03 -9.808000000000000745e-03 -1.021999999999999905e-03 8.499999999999999526e-04 4.719999999999999803e-04 -3.829999999999999854e-04 -4.533999999999999836e-03 9.879999999999999893e-03 -3.890000000000000228e-04 5.029999999999999749e-04 -7.439999999999999782e-04 1.399999999999999979e-05 -4.165000000000000299e-03 9.428000000000000616e-03 -1.259999999999999998e-04 5.335999999999999598e-03 -9.927999999999999325e-03 -1.100000000000000039e-04 6.223000000000000233e-03 -9.509000000000000091e-03 -6.009999999999999717e-04 9.240000000000000166e-04 5.410000000000000312e-04 -2.660000000000000146e-04 -4.664999999999999876e-03 9.596000000000000363e-03 -6.120000000000000223e-04 5.190000000000000386e-04 -6.750000000000000357e-04 -6.470000000000000057e-04 -4.218999999999999660e-03 9.431999999999999412e-03 1.700000000000000122e-04 4.995000000000000308e-03 -9.780000000000000498e-03 -2.469999999999999865e-04 6.233999999999999958e-03 -9.556000000000000258e-03 -1.129999999999999955e-04 9.409999999999999962e-04 5.800000000000000034e-04 -1.169999999999999979e-04 -4.564999999999999614e-03 9.605000000000000690e-03 -5.890000000000000053e-04 -8.200000000000000095e-05 -5.630000000000000239e-04 -1.469999999999999953e-04 -5.408999999999999746e-03 9.032000000000000098e-03 -2.469999999999999865e-04 4.661000000000000212e-03 -8.767999999999999752e-03 -9.799999999999999684e-05 6.328000000000000291e-03 -9.731999999999999332e-03 -7.039999999999999817e-04 3.080000000000000055e-04 3.849999999999999798e-04 -6.989999999999999686e-04 -4.971999999999999857e-03 1.000900000000000054e-02 -2.869999999999999830e-04 -1.510000000000000112e-04 -3.029999999999999924e-04 -2.269999999999999882e-04 -5.398000000000000020e-03 9.280999999999999320e-03 -1.759999999999999954e-04 4.552999999999999756e-03 -9.232999999999999888e-03 1.119999999999999983e-04 6.620000000000000016e-03 -9.768999999999999906e-03 -5.860000000000000408e-04 1.310000000000000129e-04 8.790000000000000070e-04 -2.750000000000000166e-04 -4.870000000000000197e-03 1.057199999999999980e-02 -8.109999999999999805e-04 -7.600000000000000418e-05 -3.440000000000000132e-04 -3.240000000000000150e-04 -5.342999999999999659e-03 9.171999999999999598e-03 -4.699999999999999724e-05 4.810000000000000039e-03 -8.810000000000000123e-03 -5.559999999999999621e-04 6.694000000000000297e-03 -9.768999999999999906e-03 -4.099999999999999912e-04 2.280000000000000126e-04 5.090000000000000123e-04 -7.999999999999999638e-06 -5.015999999999999626e-03 1.009799999999999934e-02 -5.029999999999999749e-04 -3.020000000000000223e-04 1.369999999999999961e-04 -3.919999999999999873e-04 -4.427000000000000379e-03 9.653000000000000122e-03 -4.260000000000000006e-04 4.782999999999999925e-03 -8.746000000000000302e-03 -1.279999999999999942e-04 5.570000000000000298e-03 -9.461000000000000659e-03 -7.820000000000000345e-04 4.479999999999999933e-04 1.322000000000000041e-03 -6.310000000000000504e-04 -4.785000000000000191e-03 9.289999999999999647e-03 -7.999999999999999638e-06 -2.049999999999999956e-04 2.190000000000000106e-04 1.369999999999999961e-04 -4.564000000000000348e-03 8.996000000000000524e-03 -1.579999999999999916e-04 4.447000000000000432e-03 -8.626999999999999252e-03 1.399999999999999877e-04 5.148999999999999931e-03 -9.258999999999999869e-03 -5.050000000000000235e-04 4.499999999999999877e-04 1.172000000000000082e-03 -2.220000000000000022e-04 -4.240999999999999978e-03 9.714999999999999677e-03 -1.043000000000000090e-03 -2.069999999999999900e-04 2.020000000000000040e-04 -5.940000000000000184e-04 -4.432000000000000176e-03 9.090000000000000857e-03 1.259999999999999998e-04 4.682999999999999663e-03 -8.762000000000000691e-03 -6.409999999999999682e-04 5.189000000000000036e-03 -9.228000000000000091e-03 -2.770000000000000110e-04 4.859999999999999954e-04 1.363000000000000062e-03 1.599999999999999928e-05 -4.775999999999999863e-03 9.268000000000000196e-03 -5.000000000000000104e-04 9.399999999999999448e-05 9.399999999999999448e-05 -3.780000000000000265e-04 -4.743999999999999953e-03 8.212999999999999814e-03 -4.939999999999999730e-04 4.995000000000000308e-03 -8.703999999999999931e-03 -1.420000000000000092e-04 6.032000000000000035e-03 -8.606000000000000802e-03 -1.083999999999999894e-03 3.919999999999999873e-04 4.800000000000000122e-04 -2.480000000000000108e-04 -5.377999999999999968e-03 8.850000000000000228e-03 -3.579999999999999741e-04 1.600000000000000131e-04 -3.449999999999999833e-04 1.299999999999999886e-04 -5.395999999999999755e-03 7.686000000000000124e-03 -1.920000000000000049e-04 5.395999999999999755e-03 -8.826999999999999777e-03 -5.199999999999999680e-05 6.229000000000000162e-03 -8.087999999999999703e-03 -5.770000000000000389e-04 3.930000000000000117e-04 3.429999999999999889e-04 -3.480000000000000020e-04 -5.394000000000000357e-03 8.772999999999999549e-03 -7.470000000000000511e-04 1.569999999999999944e-04 -3.649999999999999816e-04 -5.299999999999999807e-04 -5.349999999999999721e-03 7.694000000000000318e-03 1.630000000000000047e-04 4.956000000000000336e-03 -8.701000000000000401e-03 -4.150000000000000043e-04 6.225999999999999764e-03 -8.099999999999999561e-03 5.199999999999999680e-05 3.860000000000000041e-04 5.630000000000000239e-04 -3.249999999999999851e-04 -5.466000000000000372e-03 9.003000000000000586e-03 -5.929999999999999941e-04 -5.980000000000000072e-04 -1.211000000000000054e-03 -3.579999999999999741e-04 -4.022999999999999667e-03 7.786999999999999651e-03 -2.849999999999999886e-04 4.812000000000000305e-03 -9.449000000000000801e-03 -1.219999999999999974e-04 6.524000000000000285e-03 -9.716000000000000678e-03 -6.629999999999999609e-04 6.669999999999999497e-04 1.830000000000000029e-04 -6.949999999999999798e-04 -5.205000000000000425e-03 8.063999999999999987e-03 -2.349999999999999930e-04 -6.040000000000000447e-04 -9.979999999999999722e-04 -2.570000000000000127e-04 -3.883999999999999866e-03 7.922999999999999488e-03 -2.579999999999999828e-04 4.753000000000000280e-03 -9.856999999999999443e-03 2.220000000000000022e-04 6.901000000000000016e-03 -9.844999999999999585e-03 -5.999999999999999474e-04 6.049999999999999606e-04 6.019999999999999961e-04 -1.079999999999999960e-04 -5.035999999999999678e-03 8.656999999999999765e-03 -9.120000000000000502e-04 -4.989999999999999861e-04 -1.012000000000000096e-03 -2.629999999999999959e-04 -4.100999999999999611e-03 8.026999999999999413e-03 9.999999999999999547e-07 4.747999999999999617e-03 -9.291000000000000647e-03 -4.449999999999999746e-04 6.871999999999999637e-03 -9.622999999999999610e-03 -3.170000000000000075e-04 7.129999999999999836e-04 1.320000000000000101e-04 -3.399999999999999973e-05 -5.115999999999999888e-03 8.234000000000000000e-03 -4.979999999999999618e-04 -1.350000000000000017e-04 -1.119999999999999902e-03 -1.600000000000000131e-04 -4.976999999999999653e-03 9.719999999999999474e-03 -6.449999999999999570e-04 4.928000000000000089e-03 -9.697000000000000758e-03 -1.669999999999999935e-04 6.135999999999999961e-03 -9.393999999999999573e-03 -7.979999999999999897e-04 4.960000000000000216e-04 -3.510000000000000208e-04 -6.290000000000000018e-04 -5.741999999999999708e-03 9.452999999999999597e-03 -7.200000000000000182e-05 -1.949999999999999965e-04 -9.920000000000000432e-04 1.060000000000000016e-04 -5.126000000000000348e-03 9.126999999999999696e-03 -9.500000000000000523e-05 4.621000000000000107e-03 -9.782000000000000764e-03 3.020000000000000223e-04 5.540999999999999918e-03 -9.173999999999999863e-03 -5.509999999999999490e-04 4.699999999999999859e-04 -5.490000000000000088e-04 -2.519999999999999996e-04 -5.211000000000000354e-03 9.915000000000000202e-03 -1.038999999999999993e-03 -2.480000000000000108e-04 -1.090999999999999956e-03 -6.920000000000000153e-04 -5.137000000000000073e-03 9.292999999999999178e-03 1.900000000000000105e-04 5.060000000000000261e-03 -9.808000000000000745e-03 -5.689999999999999529e-04 5.590999999999999616e-03 -9.355999999999999733e-03 -3.159999999999999832e-04 4.380000000000000213e-04 -4.119999999999999856e-04 9.799999999999999684e-05 -5.687000000000000215e-03 9.556999999999999523e-03 -5.559999999999999621e-04 2.190000000000000106e-04 -1.330000000000000019e-03 -3.350000000000000113e-04 -4.186999999999999750e-03 1.011300000000000046e-02 -5.839999999999999922e-04 3.980000000000000031e-03 -9.338000000000000814e-03 -9.500000000000000523e-05 5.556000000000000175e-03 -9.794999999999999887e-03 -1.043000000000000090e-03 6.019999999999999961e-04 3.559999999999999797e-04 -2.869999999999999830e-04 -4.951999999999999805e-03 9.593000000000000832e-03 -3.989999999999999949e-04 2.900000000000000017e-04 -1.832000000000000078e-03 9.100000000000000287e-05 -4.683999999999999796e-03 9.749999999999999986e-03 -2.449999999999999921e-04 4.276000000000000287e-03 -9.393000000000000307e-03 -9.699999999999999963e-05 5.852000000000000431e-03 -9.388000000000000511e-03 -6.139999999999999625e-04 5.789999999999999791e-04 2.420000000000000005e-04 -2.689999999999999791e-04 -4.987000000000000113e-03 9.589000000000000301e-03 -6.809999999999999647e-04 3.480000000000000020e-04 -1.881999999999999992e-03 -5.820000000000000520e-04 -4.739000000000000157e-03 9.754999999999999782e-03 2.200000000000000078e-04 3.853999999999999787e-03 -9.351999999999999202e-03 -3.119999999999999944e-04 5.630999999999999721e-03 -9.634999999999999468e-03 3.000000000000000076e-06 5.310000000000000050e-04 3.539999999999999853e-04 -3.110000000000000243e-04 -5.046000000000000138e-03 9.756000000000000782e-03 -6.149999999999999868e-04 -1.169999999999999979e-04 -6.340000000000000149e-04 -2.820000000000000241e-04 -5.362999999999999712e-03 9.138000000000000289e-03 -3.240000000000000150e-04 5.028999999999999616e-03 -8.647000000000000172e-03 -1.740000000000000010e-04 5.634000000000000119e-03 -9.147999999999999882e-03 -6.199999999999999999e-04 8.660000000000000163e-04 1.800000000000000046e-05 -6.310000000000000504e-04 -5.499999999999999681e-03 1.053499999999999923e-02 -3.680000000000000003e-04 -8.600000000000000331e-05 -4.270000000000000249e-04 -1.649999999999999991e-04 -5.229000000000000141e-03 9.296999999999999709e-03 -5.300000000000000078e-05 4.871000000000000330e-03 -9.253000000000000808e-03 2.280000000000000126e-04 5.866999999999999819e-03 -9.053999999999999548e-03 -6.080000000000000335e-04 7.500000000000000156e-04 4.679999999999999915e-04 -2.339999999999999958e-04 -5.452000000000000249e-03 1.104499999999999926e-02 -7.960000000000000495e-04 -5.000000000000000240e-05 -4.539999999999999765e-04 -2.970000000000000092e-04 -5.230000000000000274e-03 9.397000000000000838e-03 -2.799999999999999958e-05 5.040000000000000209e-03 -8.892999999999999863e-03 -5.779999999999999548e-04 6.159000000000000412e-03 -9.296999999999999709e-03 -3.249999999999999851e-04 7.439999999999999782e-04 4.300000000000000165e-05 -1.399999999999999979e-05 -5.540999999999999918e-03 1.061999999999999923e-02