2.386559999999999793e+00 2.649199999999999999e+00 4.247919999999999696e+00 8.708709999999999951e+00 3.119470000000000187e+00 1.870470000000000077e+00 1.714830000000000076e+00 9.554300000000000015e-01 1.870479999999999920e+00 5.039460000000000051e+00 2.649210000000000065e+00 4.247910000000000075e+00 3.402919999999999945e+00 3.119470000000000187e+00 1.870479999999999920e+00 4.367709999999999759e+00 9.554300000000000015e-01 1.870489999999999986e+00 7.692339999999999733e+00 2.649210000000000065e+00 4.247919999999999696e+00 6.055819999999999759e+00 3.119460000000000122e+00 1.870470000000000077e+00 7.020620000000000083e+00 9.554200000000000470e-01 1.870489999999999986e+00 1.421790000000000109e+00 4.813279999999999781e+00 4.247939999999999827e+00 2.438169999999999948e+00 5.283529999999999838e+00 1.870500000000000052e+00 4.074690000000000367e+00 4.813279999999999781e+00 4.247930000000000206e+00 5.091079999999999828e+00 5.283540000000000347e+00 1.870489999999999986e+00 6.727590000000000181e+00 4.813279999999999781e+00 4.247930000000000206e+00 7.743979999999999642e+00 5.283540000000000347e+00 1.870500000000000052e+00 9.678570000000000562e+00 3.841590000000000060e+00 8.012919999999999376e+00 2.684699999999999864e+00 1.677550000000000097e+00 8.012930000000000774e+00 4.372790000000000177e+00 3.841600000000000126e+00 8.012919999999999376e+00 5.337579999999999991e+00 1.677540000000000031e+00 8.012940000000000396e+00 7.025680000000000369e+00 3.841610000000000191e+00 8.012919999999999376e+00 7.990479999999999805e+00 1.677550000000000097e+00 8.012930000000000774e+00 3.408040000000000180e+00 6.005670000000000286e+00 8.012940000000000396e+00 6.060929999999999929e+00 6.005659999999999776e+00 8.012930000000000774e+00 8.713839999999999364e+00 6.005670000000000286e+00 8.012940000000000396e+00 3.109910000000000174e+00 6.977319999999999744e+00 4.247930000000000206e+00 8.415699999999999292e+00 6.977319999999999744e+00 4.247919999999999696e+00 5.762800000000000367e+00 6.977310000000000123e+00 4.247919999999999696e+00 3.356409999999999894e+00 3.371329999999999938e+00 1.039038000000000039e+01 6.009310000000000151e+00 3.371329999999999938e+00 1.039038000000000039e+01 8.662219999999999587e+00 3.371340000000000003e+00 1.039037000000000077e+01 2.391659999999999897e+00 5.535400000000000098e+00 1.039037000000000077e+01 5.044550000000000090e+00 5.535400000000000098e+00 1.039038000000000039e+01 7.697449999999999903e+00 5.535389999999999588e+00 1.039037000000000077e+01 4.326279999999999681e+00 4.093449999999999811e+00 1.653282000000000096e+01 1.064842999999999940e+01 4.563729999999999620e+00 1.415535999999999994e+01 3.654549999999999965e+00 2.399680000000000035e+00 1.415539000000000058e+01 6.979180000000000383e+00 4.093460000000000321e+00 1.653282000000000096e+01 5.342660000000000409e+00 4.563729999999999620e+00 1.415537999999999919e+01 6.307439999999999714e+00 2.399680000000000035e+00 1.415537999999999919e+01 9.632080000000000197e+00 4.093449999999999811e+00 1.653281000000000134e+01 7.995549999999999713e+00 4.563729999999999620e+00 1.415537999999999919e+01 8.960350000000000037e+00 2.399680000000000035e+00 1.415539000000000058e+01 3.361509999999999998e+00 6.257530000000000037e+00 1.653283000000000058e+01 4.377889999999999837e+00 6.727789999999999715e+00 1.415537999999999919e+01 6.014400000000000190e+00 6.257520000000000415e+00 1.653283000000000058e+01 7.030789999999999651e+00 6.727780000000000094e+00 1.415539000000000058e+01 8.667299999999999116e+00 6.257520000000000415e+00 1.653283000000000058e+01 9.683690000000000353e+00 6.727780000000000094e+00 1.415537999999999919e+01 4.079780000000000406e+00 7.699440000000000062e+00 1.039037000000000077e+01 1.035542000000000051e+01 8.421569999999999112e+00 1.653282000000000096e+01 7.702519999999999811e+00 8.421559999999999491e+00 1.653283000000000058e+01 5.049619999999999997e+00 8.421569999999999112e+00 1.653281000000000134e+01 9.385569999999999524e+00 7.699449999999999683e+00 1.039035999999999937e+01 6.732660000000000089e+00 7.699449999999999683e+00 1.039035999999999937e+01 9.432069999999999510e+00 7.447580000000000311e+00 1.870479999999999920e+00 4.126269999999999882e+00 7.447580000000000311e+00 1.870479999999999920e+00 6.779180000000000206e+00 7.447580000000000311e+00 1.870470000000000077e+00 2.145150000000000112e+00 9.141379999999999839e+00 4.247930000000000206e+00 3.833260000000000112e+00 1.130542999999999942e+01 4.247930000000000206e+00 1.015541999999999945e+01 1.177570000000000050e+01 1.870470000000000077e+00 3.161519999999999886e+00 9.611649999999999139e+00 1.870489999999999986e+00 4.798029999999999795e+00 9.141379999999999839e+00 4.247930000000000206e+00 6.486139999999999795e+00 1.130544000000000082e+01 4.247930000000000206e+00 4.849619999999999820e+00 1.177570000000000050e+01 1.870470000000000077e+00 5.814420000000000144e+00 9.611649999999999139e+00 1.870500000000000052e+00 7.450940000000000119e+00 9.141389999999999461e+00 4.247930000000000206e+00 9.139049999999999230e+00 1.130542999999999942e+01 4.247919999999999696e+00 7.502519999999999634e+00 1.177569000000000088e+01 1.870470000000000077e+00 8.467320000000000846e+00 9.611639999999999517e+00 1.870489999999999986e+00 1.040192000000000050e+01 8.169719999999999871e+00 8.012919999999999376e+00 5.096140000000000114e+00 8.169710000000000250e+00 8.012919999999999376e+00 7.749030000000000307e+00 8.169710000000000250e+00 8.012919999999999376e+00 1.112527000000000044e+01 1.249782000000000082e+01 8.012919999999999376e+00 4.131380000000000052e+00 1.033376999999999946e+01 8.012940000000000396e+00 5.819480000000000430e+00 1.249783000000000044e+01 8.012930000000000774e+00 6.784279999999999866e+00 1.033376999999999946e+01 8.012940000000000396e+00 8.472379999999999356e+00 1.249782000000000082e+01 8.012919999999999376e+00 9.437170000000000059e+00 1.033376999999999946e+01 8.012940000000000396e+00 2.868479999999999919e+00 1.346949000000000041e+01 4.247930000000000206e+00 8.174289999999999168e+00 1.346949000000000041e+01 4.247919999999999696e+00 5.521390000000000242e+00 1.346949000000000041e+01 4.247919999999999696e+00 3.115000000000000213e+00 9.863509999999999778e+00 1.039038000000000039e+01 4.803110000000000213e+00 1.202755999999999936e+01 1.039037000000000077e+01 5.767900000000000027e+00 9.863500000000000156e+00 1.039037000000000077e+01 7.456000000000000405e+00 1.202755999999999936e+01 1.039037000000000077e+01 8.420799999999999841e+00 9.863500000000000156e+00 1.039038000000000039e+01 1.010890000000000022e+01 1.202755999999999936e+01 1.039037000000000077e+01 1.137179000000000073e+01 8.891840000000000188e+00 1.415536999999999956e+01 6.065990000000000215e+00 8.891840000000000188e+00 1.415535999999999994e+01 8.718880000000000408e+00 8.891830000000000567e+00 1.415537999999999919e+01 4.084859999999999935e+00 1.058563000000000009e+01 1.653282000000000096e+01 5.772979999999999556e+00 1.274968999999999930e+01 1.653282000000000096e+01 1.209514000000000067e+01 1.321993999999999936e+01 1.415536999999999956e+01 5.101239999999999775e+00 1.105589999999999939e+01 1.415539000000000058e+01 6.737750000000000128e+00 1.058563999999999972e+01 1.653282000000000096e+01 8.425860000000000127e+00 1.274968999999999930e+01 1.653281000000000134e+01 6.789340000000000153e+00 1.321995000000000076e+01 1.415536999999999956e+01 7.754139999999999588e+00 1.105588999999999977e+01 1.415537999999999919e+01 9.390650000000000830e+00 1.058563999999999972e+01 1.653282000000000096e+01 1.107877000000000045e+01 1.274967000000000006e+01 1.653282000000000096e+01 9.442239999999999966e+00 1.321993999999999936e+01 1.415536999999999956e+01 1.040703000000000067e+01 1.105591000000000079e+01 1.415539000000000058e+01 3.838340000000000085e+00 1.419162000000000035e+01 1.039038000000000039e+01 1.011398999999999937e+01 1.491374000000000066e+01 1.653282000000000096e+01 7.461090000000000444e+00 1.491375000000000028e+01 1.653283000000000058e+01 4.808209999999999873e+00 1.491372999999999927e+01 1.653283000000000058e+01 9.144140000000000157e+00 1.419162999999999997e+01 1.039037000000000077e+01 6.491249999999999964e+00 1.419161000000000072e+01 1.039037000000000077e+01 7.296210000000000306e+00 5.252860000000000085e+00 7.027219999999999800e+00 7.723250000000000171e+00 6.852570000000000050e+00 9.201670000000000016e+00 4.643320000000000114e+00 5.252869999999999706e+00 7.027219999999999800e+00 7.242600000000000149e-01 1.802319999999999922e+00 3.059210000000000207e+00 9.109980000000000189e+00 3.402000000000000135e+00 5.233660000000000423e+00 1.985319999999999974e+00 2.366680000000000117e+00 8.847699999999999454e-01 2.972000000000000197e-01 2.026199999999999946e-01 8.847699999999999454e-01 2.412389999999999812e+00 3.966380000000000017e+00 3.059219999999999828e+00 2.116080000000000183e+00 1.237959999999999949e+00 5.233670000000000044e+00 3.377159999999999940e+00 1.802319999999999922e+00 3.059210000000000207e+00 3.804190000000000182e+00 3.402000000000000135e+00 5.233660000000000423e+00 4.638209999999999944e+00 2.366680000000000117e+00 8.847599999999999909e-01 2.950099999999999945e+00 2.026300000000000046e-01 8.847699999999999454e-01 5.065279999999999561e+00 3.966380000000000017e+00 3.059219999999999828e+00 4.768970000000000375e+00 1.237950000000000106e+00 5.233670000000000044e+00 6.030050000000000132e+00 1.802319999999999922e+00 3.059219999999999828e+00 6.457099999999999618e+00 3.402010000000000201e+00 5.233649999999999913e+00 7.291120000000000267e+00 2.366690000000000182e+00 8.847500000000000364e-01 5.602999999999999758e+00 2.026399999999999868e-01 8.847699999999999454e-01 7.718169999999999753e+00 3.966369999999999951e+00 3.059219999999999828e+00 7.421870000000000189e+00 1.237950000000000106e+00 5.233660000000000423e+00 1.447599999999999998e+00 6.130440000000000111e+00 3.059200000000000141e+00 1.020569999999999977e+00 4.530739999999999768e+00 8.847699999999999454e-01 2.839430000000000121e+00 5.566069999999999851e+00 5.233660000000000423e+00 4.100500000000000256e+00 6.130440000000000111e+00 3.059210000000000207e+00 3.673449999999999882e+00 4.530730000000000146e+00 8.847599999999999909e-01 5.492320000000000313e+00 5.566069999999999851e+00 5.233649999999999913e+00 6.753400000000000070e+00 6.130429999999999602e+00 3.059210000000000207e+00 6.326349999999999696e+00 4.530739999999999768e+00 8.847800000000000109e-01 8.145220000000000127e+00 5.566069999999999851e+00 5.233670000000000044e+00 1.694110000000000005e+00 2.524439999999999795e+00 9.201670000000000016e+00 2.955189999999999984e+00 3.088820000000000121e+00 7.027199999999999669e+00 1.267069999999999919e+00 9.247499999999999609e-01 7.027219999999999800e+00 3.382239999999999913e+00 4.688509999999999955e+00 9.201670000000000016e+00 4.347019999999999662e+00 2.524439999999999795e+00 9.201660000000000394e+00 5.608080000000000176e+00 3.088810000000000056e+00 7.027219999999999800e+00 3.919970000000000176e+00 9.247600000000000264e-01 7.027219999999999800e+00 6.035149999999999793e+00 4.688509999999999955e+00 9.201660000000000394e+00 6.999909999999999854e+00 2.524449999999999861e+00 9.201650000000000773e+00 8.260970000000000368e+00 3.088810000000000056e+00 7.027210000000000178e+00 6.572860000000000369e+00 9.247499999999999609e-01 7.027230000000000310e+00 8.688040000000000873e+00 4.688509999999999955e+00 9.201650000000000773e+00 2.417460000000000164e+00 6.852570000000000050e+00 9.201660000000000394e+00 1.990410000000000013e+00 5.252869999999999706e+00 7.027219999999999800e+00 5.070359999999999978e+00 6.852560000000000429e+00 9.201660000000000394e+00 1.008493999999999957e+01 7.010320000000000107e+00 1.751855000000000118e+01 8.266080000000000538e+00 5.974990000000000023e+00 1.316966000000000037e+01 8.693120000000000402e+00 7.574699999999999989e+00 1.534409999999999918e+01 7.432039999999999758e+00 7.010320000000000107e+00 1.751856000000000080e+01 5.613170000000000215e+00 5.974999999999999645e+00 1.316966999999999999e+01 6.040230000000000210e+00 7.574690000000000367e+00 1.534411000000000058e+01 1.007985000000000042e+01 4.124139999999999695e+00 1.137611000000000061e+01 3.085949999999999971e+00 1.960090000000000110e+00 1.137611000000000061e+01 4.774049999999999905e+00 4.124139999999999695e+00 1.137611000000000061e+01 5.738830000000000098e+00 1.960080000000000044e+00 1.137611000000000061e+01 7.426960000000000228e+00 4.124130000000000074e+00 1.137609999999999921e+01 8.391719999999999402e+00 1.960090000000000110e+00 1.137612000000000023e+01 3.809299999999999908e+00 6.288190000000000168e+00 1.137612000000000023e+01 6.462170000000000414e+00 6.288199999999999790e+00 1.137611000000000061e+01 9.115080000000000737e+00 6.288199999999999790e+00 1.137609999999999921e+01 2.663990000000000080e+00 3.246570000000000178e+00 1.534409999999999918e+01 1.104969999999999963e+01 4.846260000000000012e+00 1.751855000000000118e+01 3.925050000000000150e+00 3.810950000000000060e+00 1.316965000000000074e+01 2.236930000000000085e+00 1.646889999999999965e+00 1.316966999999999999e+01 4.352100000000000080e+00 5.410639999999999894e+00 1.534409999999999918e+01 4.055790000000000006e+00 2.682209999999999983e+00 1.751855000000000118e+01 5.316880000000000273e+00 3.246579999999999799e+00 1.534412000000000020e+01 5.743909999999999627e+00 4.846260000000000012e+00 1.751855000000000118e+01 6.577950000000000408e+00 3.810939999999999994e+00 1.316966000000000037e+01 4.889820000000000277e+00 1.646879999999999900e+00 1.316966999999999999e+01 7.004990000000000272e+00 5.410630000000000273e+00 1.534411000000000058e+01 6.708700000000000330e+00 2.682220000000000049e+00 1.751855000000000118e+01 7.969780000000000086e+00 3.246579999999999799e+00 1.534412000000000020e+01 8.396819999999999951e+00 4.846269999999999634e+00 1.751855000000000118e+01 9.230829999999999202e+00 3.810950000000000060e+00 1.316966999999999999e+01 7.542729999999999713e+00 1.646889999999999965e+00 1.316966000000000037e+01 9.657899999999999707e+00 5.410639999999999894e+00 1.534411000000000058e+01 9.361589999999999634e+00 2.682209999999999983e+00 1.751856000000000080e+01 3.387340000000000018e+00 7.574699999999999989e+00 1.534411000000000058e+01 2.960280000000000022e+00 5.974999999999999645e+00 1.316966999999999999e+01 4.779149999999999565e+00 7.010309999999999597e+00 1.751856000000000080e+01 1.013472999999999935e+01 1.334473000000000020e+01 9.201660000000000394e+00 8.019550000000000622e+00 9.580980000000000274e+00 7.027210000000000178e+00 9.707660000000000622e+00 1.174503999999999948e+01 7.027210000000000178e+00 9.833330000000000126e+00 7.730109999999999815e+00 5.233670000000000044e+00 2.708680000000000199e+00 6.694799999999999862e+00 8.847500000000000364e-01 3.135730000000000128e+00 8.294489999999999696e+00 3.059219999999999828e+00 4.527540000000000120e+00 7.730109999999999815e+00 5.233660000000000423e+00 5.361570000000000391e+00 6.694790000000000241e+00 8.847699999999999454e-01 5.788619999999999877e+00 8.294489999999999696e+00 3.059210000000000207e+00 7.180450000000000443e+00 7.730120000000000324e+00 5.233670000000000044e+00 8.014450000000000074e+00 6.694799999999999862e+00 8.847699999999999454e-01 8.441509999999999181e+00 8.294489999999999696e+00 3.059219999999999828e+00 2.170960000000000001e+00 1.045855000000000068e+01 3.059210000000000207e+00 1.055667000000000044e+01 1.205823999999999963e+01 5.233660000000000423e+00 3.432020000000000071e+00 1.102289999999999992e+01 8.847500000000000364e-01 1.743910000000000071e+00 8.858850000000000335e+00 8.847800000000000109e-01 3.859070000000000000e+00 1.262260000000000026e+01 3.059219999999999828e+00 3.562769999999999992e+00 9.894180000000000419e+00 5.233660000000000423e+00 4.823859999999999815e+00 1.045856000000000030e+01 3.059219999999999828e+00 5.250890000000000057e+00 1.205823999999999963e+01 5.233660000000000423e+00 6.084920000000000329e+00 1.102289999999999992e+01 8.847500000000000364e-01 4.396810000000000329e+00 8.858850000000000335e+00 8.847599999999999909e-01 6.511980000000000324e+00 1.262259000000000064e+01 3.059219999999999828e+00 6.215670000000000250e+00 9.894190000000000040e+00 5.233660000000000423e+00 7.476740000000000386e+00 1.045853999999999928e+01 3.059219999999999828e+00 7.903789999999999871e+00 1.205823000000000000e+01 5.233649999999999913e+00 8.737809999999999633e+00 1.102289999999999992e+01 8.847699999999999454e-01 7.049690000000000012e+00 8.858850000000000335e+00 8.847699999999999454e-01 9.164870000000000516e+00 1.262260000000000026e+01 3.059219999999999828e+00 8.868570000000000064e+00 9.894190000000000040e+00 5.233670000000000044e+00 3.678539999999999921e+00 7.416929999999999801e+00 7.027210000000000178e+00 4.105599999999999916e+00 9.016610000000000014e+00 9.201660000000000394e+00 6.331419999999999604e+00 7.416929999999999801e+00 7.027199999999999669e+00 6.758479999999999599e+00 9.016619999999999635e+00 9.201650000000000773e+00 8.984320000000000306e+00 7.416920000000000179e+00 7.027210000000000178e+00 9.411379999999999413e+00 9.016619999999999635e+00 9.201670000000000016e+00 3.140829999999999789e+00 1.118066999999999922e+01 9.201670000000000016e+00 4.401880000000000237e+00 1.174503999999999948e+01 7.027199999999999669e+00 2.713760000000000172e+00 9.580970000000000653e+00 7.027210000000000178e+00 4.828949999999999854e+00 1.334473000000000020e+01 9.201670000000000016e+00 5.793720000000000425e+00 1.118066999999999922e+01 9.201660000000000394e+00 7.054770000000000429e+00 1.174502999999999986e+01 7.027210000000000178e+00 5.366660000000000430e+00 9.580970000000000653e+00 7.027210000000000178e+00 7.481830000000000425e+00 1.334473000000000020e+01 9.201660000000000394e+00 8.446600000000000108e+00 1.118066999999999922e+01 9.201660000000000394e+00 1.080828999999999951e+01 1.133844000000000030e+01 1.751856000000000080e+01 1.110458000000000034e+01 1.406686000000000014e+01 1.534411000000000058e+01 8.989409999999999457e+00 1.030311000000000021e+01 1.316966999999999999e+01 1.067753000000000085e+01 1.246715999999999980e+01 1.316966999999999999e+01 9.843500000000000583e+00 1.350248000000000026e+01 1.751855000000000118e+01 9.416460000000000719e+00 1.190281000000000056e+01 1.534412000000000020e+01 1.080319000000000074e+01 8.452249999999999375e+00 1.137611000000000061e+01 5.497399999999999842e+00 8.452239999999999753e+00 1.137611000000000061e+01 8.150299999999999656e+00 8.452249999999999375e+00 1.137611000000000061e+01 1.152652999999999928e+01 1.278035999999999994e+01 1.137611000000000061e+01 4.532630000000000159e+00 1.061630000000000074e+01 1.137611000000000061e+01 6.220749999999999780e+00 1.278035999999999994e+01 1.137612000000000023e+01 7.185529999999999973e+00 1.061630000000000074e+01 1.137611000000000061e+01 8.873649999999999594e+00 1.278035999999999994e+01 1.137612000000000023e+01 9.838419999999999277e+00 1.061631000000000036e+01 1.137611000000000061e+01 1.177304999999999957e+01 9.174369999999999692e+00 1.751856000000000080e+01 4.648399999999999643e+00 8.139039999999999608e+00 1.316965000000000074e+01 5.075459999999999638e+00 9.738749999999999574e+00 1.534412000000000020e+01 6.467270000000000074e+00 9.174379999999999313e+00 1.751855000000000118e+01 7.301280000000000214e+00 8.139060000000000628e+00 1.316966000000000037e+01 7.728340000000000209e+00 9.738739999999999952e+00 1.534411000000000058e+01 9.120160000000000267e+00 9.174369999999999692e+00 1.751855000000000118e+01 9.954179999999999140e+00 8.139060000000000628e+00 1.316965000000000074e+01 1.038124999999999964e+01 9.738739999999999952e+00 1.534411000000000058e+01 4.110680000000000334e+00 1.190279999999999916e+01 1.534411000000000058e+01 1.249639999999999951e+01 1.350248999999999988e+01 1.751855000000000118e+01 5.371749999999999581e+00 1.246715000000000018e+01 1.316966000000000037e+01 3.683619999999999894e+00 1.030310000000000059e+01 1.316966999999999999e+01 5.798790000000000333e+00 1.406685000000000052e+01 1.534412000000000020e+01 5.502489999999999881e+00 1.133843000000000067e+01 1.751855000000000118e+01 6.763580000000000148e+00 1.190279999999999916e+01 1.534411000000000058e+01 7.190610000000000390e+00 1.350248999999999988e+01 1.751856000000000080e+01 8.024630000000000152e+00 1.246715999999999980e+01 1.316966000000000037e+01 6.336520000000000152e+00 1.030310000000000059e+01 1.316966999999999999e+01 8.451689999999999259e+00 1.406685000000000052e+01 1.534409999999999918e+01 8.155379999999999185e+00 1.133843000000000067e+01 1.751856000000000080e+01