-1.996269336650000014e+03
-1.996148254299999962e+03
-1.995973856450000085e+03
-1.995752747380000073e+03
-1.995495164559999921e+03
-1.995215175210000098e+03
-1.994929438169999912e+03
-1.994657365900000059e+03
-1.994419741830000021e+03
-1.994238200559999996e+03
