-1.719624000000000041e+00 -5.227169999999999872e-01 -1.254389999999999949e-01 1.719433999999999907e+00 5.231590000000000407e-01 1.266740000000000088e-01 1.718536999999999981e+00 5.218159999999999465e-01 1.269289999999999863e-01 -1.718806999999999974e+00 -5.237330000000000041e-01 -1.255410000000000137e-01 1.720364999999999922e+00 5.225549999999999917e-01 1.257109999999999894e-01 1.720002999999999949e+00 5.229559999999999764e-01 1.256940000000000002e-01 -1.718806000000000056e+00 -5.231700000000000239e-01 -1.261140000000000039e-01 1.719133000000000022e+00 5.226849999999999552e-01 1.263829999999999953e-01 1.720468000000000108e+00 5.233989999999999476e-01 1.252149999999999930e-01 -1.718469999999999942e+00 -5.235840000000000494e-01 -1.264319999999999888e-01 1.720555000000000057e+00 5.237260000000000248e-01 1.250179999999999902e-01 -1.719581000000000026e+00 -5.233219999999999539e-01 -1.267340000000000133e-01 1.718803000000000081e+00 5.222700000000000120e-01 1.261539999999999884e-01 -1.719422000000000006e+00 -5.230939999999999479e-01 -1.254659999999999942e-01 1.719751000000000030e+00 5.221660000000000190e-01 1.252109999999999890e-01 1.719492999999999938e+00 5.229939999999999589e-01 1.268519999999999925e-01 1.719821999999999962e+00 5.234480000000000244e-01 1.265709999999999891e-01 1.719494999999999996e+00 5.236509999999999776e-01 1.268479999999999885e-01 1.719060999999999950e+00 5.232280000000000264e-01 1.260129999999999861e-01 1.719362999999999975e+00 5.232290000000000552e-01 1.261500000000000121e-01 1.719211999999999962e+00 5.224450000000000482e-01 1.263100000000000056e-01 1.719051000000000107e+00 5.231789999999999496e-01 1.267500000000000016e-01 1.719138999999999973e+00 5.238760000000000083e-01 1.268259999999999943e-01 1.719038999999999984e+00 5.230839999999999934e-01 1.261529999999999874e-01 -1.719413000000000080e+00 -5.225600000000000245e-01 -1.265769999999999951e-01 -1.718847000000000014e+00 -5.221559999999999535e-01 -1.250970000000000137e-01 -1.719163999999999914e+00 -5.223010000000000153e-01 -1.261609999999999954e-01 -1.719265000000000043e+00 -5.226830000000000087e-01 -1.271490000000000120e-01 -1.719294000000000100e+00 -5.229740000000000499e-01 -1.268610000000000015e-01 -1.718987000000000043e+00 -5.230529999999999902e-01 -1.263660000000000061e-01 -1.719967999999999941e+00 -5.225199999999999845e-01 -1.250499999999999945e-01 -1.718617000000000061e+00 -5.232189999999999896e-01 -1.265590000000000048e-01 -1.719187999999999938e+00 -5.229599999999999804e-01 -1.262050000000000116e-01 -1.719290999999999903e+00 -5.214699999999999891e-01 -1.253710000000000102e-01 1.719359000000000082e+00 5.222869999999999457e-01 1.265539999999999998e-01 1.719009999999999927e+00 5.227249999999999952e-01 1.262759999999999994e-01 -1.718364000000000003e+00 -5.227479999999999905e-01 -1.253859999999999975e-01 1.719619999999999926e+00 5.233459999999999779e-01 1.261420000000000041e-01 1.719427999999999956e+00 5.234320000000000084e-01 1.260499999999999954e-01 -1.719384999999999941e+00 -5.222820000000000240e-01 -1.260080000000000089e-01 1.719651000000000041e+00 5.230150000000000077e-01 1.258849999999999969e-01 1.719697999999999949e+00 5.237509999999999666e-01 1.262500000000000011e-01 -1.718906999999999963e+00 -5.235910000000000286e-01 -1.261349999999999971e-01 1.719945000000000057e+00 5.226250000000000062e-01 1.265880000000000061e-01 -1.718774000000000024e+00 -5.234309999999999796e-01 -1.264230000000000076e-01 1.719487999999999905e+00 5.231080000000000174e-01 1.258100000000000052e-01 -1.719152999999999931e+00 -5.231860000000000399e-01 -1.264629999999999921e-01 1.719689999999999941e+00 5.231540000000000079e-01 1.258650000000000047e-01 -1.720088000000000061e+00 -5.227129999999999832e-01 -1.255360000000000087e-01 -1.719478999999999980e+00 -5.223849999999999882e-01 -1.260680000000000134e-01 -1.718752999999999975e+00 -5.227159999999999584e-01 -1.264510000000000078e-01 -1.719521999999999995e+00 -5.225370000000000292e-01 -1.257489999999999997e-01 -1.720340999999999898e+00 -5.229730000000000212e-01 -1.256919999999999982e-01 -1.719225999999999921e+00 -5.225250000000000172e-01 -1.255660000000000109e-01 1.719416000000000055e+00 5.238519999999999843e-01 1.261510000000000131e-01 1.720631999999999939e+00 5.232560000000000544e-01 1.254740000000000022e-01 1.718615000000000004e+00 5.229810000000000292e-01 1.267830000000000068e-01 -1.719200999999999979e+00 -5.235779999999999879e-01 -1.260719999999999896e-01 -1.719538000000000011e+00 -5.225729999999999542e-01 -1.255660000000000109e-01 1.719221000000000110e+00 5.226060000000000150e-01 1.261289999999999911e-01 1.719518000000000102e+00 5.223360000000000225e-01 1.262010000000000076e-01 -1.719087999999999949e+00 -5.231270000000000087e-01 -1.260300000000000031e-01 -1.718655000000000044e+00 -5.231689999999999952e-01 -1.262070000000000136e-01 1.719975000000000032e+00 5.224280000000000035e-01 1.253029999999999977e-01 1.719381000000000048e+00 5.231550000000000367e-01 1.261430000000000051e-01 -1.719686000000000048e+00 -5.233619999999999939e-01 -1.251150000000000040e-01 -1.719678999999999958e+00 -5.230219999999999869e-01 -1.267820000000000058e-01 1.720212999999999992e+00 5.232719999999999594e-01 1.259139999999999981e-01 1.719500999999999946e+00 5.228239999999999554e-01 1.261929999999999996e-01 1.719092999999999982e+00 5.225309999999999677e-01 1.262790000000000024e-01 1.719923000000000091e+00 5.223919999999999675e-01 1.261170000000000069e-01 1.719985000000000097e+00 5.231080000000000174e-01 1.264019999999999866e-01 1.719198000000000004e+00 5.231369999999999632e-01 1.272550000000000070e-01 1.719659000000000049e+00 5.239639999999999853e-01 1.251099999999999990e-01 1.719715000000000105e+00 5.225340000000000540e-01 1.260300000000000031e-01 1.719343000000000066e+00 5.230939999999999479e-01 1.260580000000000034e-01 1.719276000000000026e+00 5.233710000000000306e-01 1.268489999999999895e-01 1.719848999999999961e+00 5.235119999999999774e-01 1.256889999999999952e-01 -1.718882999999999939e+00 -5.228030000000000177e-01 -1.267000000000000071e-01 -1.719915000000000083e+00 -5.226410000000000222e-01 -1.256329999999999947e-01 -1.719182999999999906e+00 -5.221230000000000038e-01 -1.251919999999999977e-01 -1.719228999999999896e+00 -5.235929999999999751e-01 -1.270390000000000130e-01 -1.718475999999999893e+00 -5.236659999999999648e-01 -1.264689999999999981e-01 -1.719341999999999926e+00 -5.227159999999999584e-01 -1.262020000000000086e-01 -1.719440999999999997e+00 -5.228000000000000425e-01 -1.253559999999999952e-01 -1.719983999999999957e+00 -5.220920000000000005e-01 -1.266269999999999896e-01 -1.718882999999999939e+00 -5.226380000000000470e-01 -1.263730000000000131e-01 1.719492999999999938e+00 5.235440000000000094e-01 1.256559999999999899e-01 1.720110000000000028e+00 5.233999999999999764e-01 1.265259999999999996e-01 1.719440000000000079e+00 5.235699999999999799e-01 1.256659999999999999e-01 -1.718558000000000030e+00 -5.233449999999999491e-01 -1.253610000000000002e-01 -1.719516000000000044e+00 -5.237690000000000401e-01 -1.254649999999999932e-01 1.718914999999999971e+00 5.228720000000000034e-01 1.270469999999999933e-01 1.719641999999999893e+00 5.226279999999999815e-01 1.254079999999999917e-01 -1.718955000000000011e+00 -5.228610000000000202e-01 -1.261740000000000084e-01 -1.719414999999999916e+00 -5.237389999999999546e-01 -1.252459999999999962e-01 1.719735999999999931e+00 5.223659999999999970e-01 1.264760000000000051e-01 1.718550000000000022e+00 5.229089999999999572e-01 1.266790000000000138e-01 -1.718787999999999982e+00 -5.227640000000000065e-01 -1.248760000000000009e-01 -1.719028999999999918e+00 -5.227349999999999497e-01 -1.261309999999999931e-01 1.719918000000000058e+00 5.232019999999999449e-01 1.262350000000000139e-01 1.719756999999999980e+00 5.229570000000000052e-01 1.260759999999999936e-01 -1.719097000000000097e+00 -5.226020000000000110e-01 -1.257679999999999909e-01 -1.719675999999999982e+00 -5.219759999999999955e-01 -1.260310000000000041e-01 -1.718849000000000071e+00 -5.228490000000000082e-01 -1.264220000000000066e-01 -1.719313000000000091e+00 -5.224509999999999987e-01 -1.261929999999999996e-01 -1.719395000000000007e+00 -5.235689999999999511e-01 -1.259270000000000111e-01 -1.720244000000000106e+00 -5.231440000000000534e-01 -1.259329999999999894e-01 2.606891000000000069e+00 1.354897999999999936e+00 -4.901981000000000144e+00 -2.320000000000000014e-04 -4.889999999999999599e-04 5.159999999999999656e-04 2.608804000000000123e+00 1.354157000000000055e+00 -4.901889999999999858e+00 -7.540000000000000044e-04 6.740000000000000114e-04 -4.550000000000000008e-04 -2.609358999999999984e+00 -1.353790000000000049e+00 4.901762999999999870e+00 2.607704000000000022e+00 1.354119000000000073e+00 -4.902000000000000135e+00 2.607603000000000115e+00 1.354486999999999997e+00 -4.902029999999999887e+00 -4.550000000000000008e-04 5.209999999999999788e-04 1.167999999999999984e-03 -2.608570999999999973e+00 -1.353890999999999956e+00 4.900250999999999912e+00 -1.499999999999999869e-04 -2.999999999999999737e-04 3.589999999999999984e-04 -2.606790999999999858e+00 -1.352803999999999895e+00 4.900583000000000133e+00 2.609109999999999818e+00 1.353544000000000080e+00 -4.901874000000000287e+00 2.608997000000000011e+00 1.352683000000000080e+00 -4.901580000000000048e+00 5.779999999999999548e-04 9.740000000000000394e-04 1.350000000000000017e-04 -2.606339999999999879e+00 -1.352648000000000073e+00 4.900794999999999568e+00 2.420000000000000005e-04 1.740000000000000010e-04 2.970000000000000092e-04 -2.610148999999999830e+00 -1.352762000000000020e+00 4.903325999999999851e+00 2.607501000000000069e+00 1.353072999999999970e+00 -4.901677000000000284e+00 2.609166999999999792e+00 1.353626999999999914e+00 -4.901728999999999559e+00 -5.209999999999999788e-04 5.439999999999999957e-04 -7.649999999999999465e-04 -2.610098999999999947e+00 -1.353059000000000012e+00 4.902325000000000266e+00 -4.920000000000000328e-04 -1.054999999999999948e-03 1.183999999999999940e-03 2.606602000000000086e+00 1.353698000000000068e+00 -4.901437999999999739e+00 -2.607957999999999998e+00 -1.354686000000000057e+00 4.901485000000000092e+00 4.650000000000000270e-04 -2.680000000000000090e-04 5.599999999999999509e-04 2.608664000000000094e+00 1.354624000000000050e+00 -4.901238000000000206e+00 -2.607504000000000044e+00 -1.354578999999999978e+00 4.903019999999999712e+00 -4.730000000000000046e-04 -3.640000000000000115e-04 1.449999999999999900e-03 2.608703999999999912e+00 1.353447999999999984e+00 -4.902250999999999692e+00 -2.610846000000000000e+00 -1.353817999999999966e+00 4.902474999999999916e+00 2.100000000000000087e-04 2.500000000000000052e-04 4.429999999999999802e-04 2.608302000000000120e+00 1.353293000000000079e+00 -4.900418000000000163e+00 2.606819999999999915e+00 1.354352999999999918e+00 -4.900608000000000075e+00 1.000999999999999937e-03 3.999999999999999819e-06 -2.519999999999999996e-04 -6.740000000000000114e-04 6.610000000000000207e-04 9.380000000000000317e-04 2.608265999999999973e+00 1.354057999999999984e+00 -4.902273000000000103e+00 2.608900000000000219e+00 1.353452000000000099e+00 -4.900769999999999627e+00 -3.899999999999999929e-04 9.610000000000000486e-04 6.909999999999999910e-04 3.409999999999999945e-04 2.390000000000000089e-04 6.729999999999999871e-04 2.606670999999999960e+00 1.353607000000000005e+00 -4.901449000000000389e+00 2.608058999999999905e+00 1.354680000000000106e+00 -4.902161000000000435e+00 -1.160000000000000007e-04 9.160000000000000390e-04 1.528999999999999977e-03 3.099999999999999999e-04 -7.219999999999999855e-04 1.191000000000000001e-03 2.608114000000000043e+00 1.354327000000000059e+00 -4.900136999999999965e+00 4.870000000000000197e-04 -8.679999999999999565e-04 4.670000000000000214e-04 -2.608962000000000003e+00 -1.354592999999999936e+00 4.902345000000000397e+00 2.609046999999999894e+00 1.354845000000000077e+00 -4.903817000000000093e+00 4.449999999999999746e-04 -1.521999999999999915e-03 2.919999999999999961e-04 -2.607384999999999842e+00 -1.354513000000000078e+00 4.901193000000000133e+00 2.608614000000000210e+00 1.355199000000000042e+00 -4.902408999999999573e+00 2.239999999999999966e-04 -7.799999999999999859e-05 1.949999999999999965e-04 -2.609379000000000115e+00 -1.353507999999999933e+00 4.901258000000000337e+00 -2.609161999999999981e+00 -1.355004000000000097e+00 4.901360000000000383e+00 -2.608300999999999981e+00 -1.352923000000000098e+00 4.899530999999999636e+00 -2.607702999999999882e+00 -1.354389000000000065e+00 4.900419000000000302e+00 -2.607111999999999874e+00 -1.352678000000000047e+00 4.900498999999999938e+00 -2.608055999999999930e+00 -1.353819000000000106e+00 4.900955999999999868e+00 -2.609544000000000086e+00 -1.353328000000000086e+00 4.901041000000000203e+00 -2.606414000000000009e+00 -1.353580999999999923e+00 4.900319999999999787e+00 -2.608716999999999953e+00 -1.353888999999999898e+00 4.901881999999999628e+00 -2.539999999999999940e-04 3.690000000000000246e-04 -7.299999999999999903e-05 -2.608363000000000209e+00 -1.354025000000000034e+00 4.901727000000000167e+00 2.606749000000000205e+00 1.353385000000000060e+00 -4.901698999999999806e+00 2.608122999999999969e+00 1.353342000000000045e+00 -4.903353000000000073e+00 -2.280000000000000126e-04 6.200000000000000270e-05 3.110000000000000243e-04 -2.609386000000000205e+00 -1.353283999999999931e+00 4.902185000000000237e+00 -9.299999999999999727e-05 -9.299999999999999727e-05 -7.190000000000000210e-04 -2.608033999999999963e+00 -1.353855999999999948e+00 4.901773999999999631e+00 2.608353000000000144e+00 1.353784000000000098e+00 -4.902312000000000225e+00 2.608124000000000109e+00 1.352398999999999907e+00 -4.902801000000000187e+00 7.240000000000000342e-04 7.420000000000000380e-04 9.699999999999999963e-05 -2.607378999999999891e+00 -1.353846000000000105e+00 4.901568000000000147e+00 7.110000000000000434e-04 -9.999999999999999547e-07 -1.000000000000000021e-03 -2.607702000000000186e+00 -1.354565000000000019e+00 4.901858999999999966e+00 2.608366999999999880e+00 1.354403999999999941e+00 -4.903336000000000361e+00 2.608214999999999950e+00 1.353561999999999932e+00 -4.901559999999999917e+00 -3.049999999999999868e-04 4.739999999999999747e-04 -1.620000000000000075e-04 -2.608169999999999877e+00 -1.353860999999999981e+00 4.902057000000000109e+00 1.450000000000000009e-04 -7.619999999999999820e-04 -9.179999999999999792e-04 2.606504000000000154e+00 1.355285999999999991e+00 -4.903451999999999700e+00 -2.608255000000000212e+00 -1.353917999999999955e+00 4.901193000000000133e+00 -4.440000000000000045e-04 -7.249999999999999500e-04 1.897999999999999948e-03 2.607581999999999844e+00 1.352640999999999982e+00 -4.900960999999999679e+00 2.607120999999999800e+00 1.353439000000000059e+00 -4.900629999999999598e+00 -2.608023999999999898e+00 -1.352937999999999974e+00 4.900730000000000253e+00 2.608486999999999778e+00 1.352813000000000043e+00 -4.900325999999999738e+00 2.570000000000000127e-04 -1.090000000000000067e-04 1.589999999999999888e-04 -2.607549000000000117e+00 -1.354246999999999979e+00 4.901885000000000048e+00 2.608045000000000169e+00 1.354103000000000057e+00 -4.902129999999999654e+00 -1.119999999999999983e-04 -4.399999999999999886e-05 6.589999999999999721e-04 -2.609982000000000024e+00 -1.353885000000000005e+00 4.901472000000000051e+00 2.608401999999999887e+00 1.352789000000000019e+00 -4.901841000000000115e+00 -1.119999999999999983e-04 -2.910000000000000260e-04 -4.079999999999999968e-04 -1.579999999999999916e-04 5.710000000000000015e-04 -1.479999999999999925e-04 -2.608340000000000103e+00 -1.354044000000000025e+00 4.900921999999999557e+00 2.607807000000000208e+00 1.353744000000000058e+00 -4.901121999999999979e+00 2.608013999999999832e+00 1.354192999999999980e+00 -4.901740000000000208e+00 -8.000000000000000654e-05 2.570000000000000127e-04 -2.469999999999999865e-04 -2.608366999999999880e+00 -1.354247999999999896e+00 4.901810000000000223e+00 -1.420000000000000092e-04 -3.359999999999999814e-04 -9.439999999999999607e-04 -2.608750000000000124e+00 -1.353650000000000020e+00 4.901266999999999818e+00 2.607550999999999952e+00 1.354055999999999926e+00 -4.901051999999999964e+00 2.608147999999999911e+00 1.354176000000000046e+00 -4.900722000000000023e+00 -1.039999999999999936e-04 2.530000000000000239e-04 -1.749999999999999982e-04 -2.608226999999999851e+00 -1.355934999999999890e+00 4.903058999999999834e+00 6.290000000000000018e-04 9.500000000000000523e-05 -2.620000000000000258e-04 -2.608756000000000075e+00 -1.353885999999999923e+00 4.901693999999999996e+00 2.607921999999999851e+00 1.354838999999999904e+00 -4.902300000000000324e+00 2.608595999999999915e+00 1.354125999999999941e+00 -4.901073000000000235e+00 -9.999999999999999547e-07 2.030000000000000012e-04 -8.800000000000000313e-04 -2.608944000000000152e+00 -1.354200999999999988e+00 4.901220000000000354e+00 2.608557999999999932e+00 1.352961000000000080e+00 -4.901094999999999757e+00 -1.340000000000000045e-04 -1.379999999999999933e-04 1.981000000000000122e-03 2.607180000000000053e+00 1.352527999999999953e+00 -4.900860999999999912e+00 1.969999999999999909e-04 -9.820000000000000170e-04 1.185000000000000072e-03 2.607479999999999798e+00 1.353105000000000002e+00 -4.900320999999999927e+00 -2.700000000000000035e-04 -5.400000000000000069e-04 9.840000000000000656e-04 -2.090000000000000115e-04 4.840000000000000010e-04 1.098000000000000018e-03 2.607826000000000199e+00 1.353083999999999953e+00 -4.900070000000000370e+00 2.607412000000000063e+00 1.353582000000000063e+00 -4.900248999999999633e+00 -5.779999999999999548e-04 -2.970000000000000092e-04 1.825999999999999932e-03 -2.889999999999999774e-04 8.949999999999999623e-04 2.102000000000000136e-03 2.608103999999999978e+00 1.353736000000000050e+00 -4.900592999999999755e+00 2.608210000000000139e+00 1.353042999999999996e+00 -4.900553000000000381e+00 2.860000000000000129e-04 -1.149999999999999981e-03 1.180999999999999975e-03 9.799999999999999684e-05 -1.160000000000000007e-04 1.183999999999999940e-03 -2.608607999999999816e+00 -1.354190999999999923e+00 4.901997999999999855e+00 8.859999999999999603e-04 -7.410000000000000137e-04 -2.000000000000000164e-05 2.608651000000000053e+00 1.352255999999999903e+00 -4.903601000000000099e+00 2.608592999999999940e+00 1.354219000000000062e+00 -4.903208000000000233e+00 -2.607155999999999807e+00 -1.353779999999999983e+00 4.901908999999999850e+00 5.159999999999999656e-04 -1.810000000000000085e-04 -8.880000000000000089e-04 -2.607835999999999821e+00 -1.354622999999999911e+00 4.901517000000000124e+00 -2.608765000000000001e+00 -1.353421999999999903e+00 4.901377000000000095e+00 -2.608073999999999781e+00 -1.354970000000000008e+00 4.901629999999999932e+00 -2.607279000000000124e+00 -1.354152999999999940e+00 4.901061999999999585e+00 -2.607235000000000191e+00 -1.353831999999999924e+00 4.901373000000000424e+00 -2.609350000000000058e+00 -1.354573999999999945e+00 4.900856000000000101e+00 -2.608905000000000030e+00 -1.354433999999999916e+00 4.900987999999999900e+00 -2.608575999999999784e+00 -1.354824000000000028e+00 4.900369999999999671e+00 -2.608277000000000179e+00 -1.354249000000000036e+00 4.901279999999999859e+00 -2.608264000000000138e+00 -1.353479000000000099e+00 4.901167000000000051e+00 2.606942999999999788e+00 1.354306999999999928e+00 -4.902853000000000350e+00 3.910000000000000172e-04 -5.529999999999999976e-04 -1.840000000000000056e-03 -2.608176999999999968e+00 -1.354316999999999993e+00 4.901271999999999629e+00 2.608327000000000062e+00 1.352638000000000007e+00 -4.903273000000000437e+00 5.050000000000000235e-04 -5.259999999999999919e-04 -5.910000000000000539e-04 -2.608389999999999986e+00 -1.353679000000000077e+00 4.901828000000000074e+00 2.608293000000000195e+00 1.351979000000000042e+00 -4.903214000000000183e+00 -6.579999999999999478e-04 3.280000000000000038e-04 -3.330000000000000169e-04 5.099999999999999960e-05 1.216000000000000067e-03 -6.509999999999999945e-04 -2.608747999999999845e+00 -1.354120999999999908e+00 4.901811000000000362e+00 2.608499000000000123e+00 1.353888999999999898e+00 -4.904227999999999810e+00 2.608229000000000131e+00 1.353081999999999896e+00 -4.903431000000000317e+00 3.600000000000000091e-05 3.150000000000000131e-04 -1.150999999999999896e-03 -2.608490999999999893e+00 -1.353285000000000071e+00 4.901925999999999561e+00 -1.200000000000000030e-04 7.079999999999999705e-04 -1.069999999999999988e-03 -2.608614999999999906e+00 -1.354379999999999917e+00 4.901309000000000360e+00 2.607374000000000080e+00 1.353741000000000083e+00 -4.903182000000000151e+00 2.607994000000000145e+00 1.354594999999999994e+00 -4.903618999999999950e+00 2.010000000000000068e-04 5.410000000000000312e-04 -5.519999999999999733e-04 -2.607524999999999871e+00 -1.353558000000000039e+00 4.901215999999999795e+00