-9.320918970617369766e-04 -5.487082719083358727e-04 -1.205410302881461532e-01 4.699074858886214236e-04 -1.397968538716668364e-03 2.245038957226403592e-03 4.765893826687460561e-04 -5.960859034446252917e-03 9.969103928226844338e-03 1.946907182803783070e-03 -5.359693550218015256e-04 2.269086880669084118e-03 -9.740906659560718021e-04 1.115032634209827626e-03 2.247944527595009331e-03 -9.781383962780907781e-04 -5.549511998031185283e-04 3.387968040516852776e-03 4.979095070761412143e-04 1.961031651687743932e-03 2.259992474288804575e-03 4.423550199857493453e-03 2.554153838407088525e-03 1.109514392872355121e-02 -4.925402998258555411e-03 3.393145095111423266e-03 9.961751335396147947e-03 -1.371380553125944304e-04 -6.695184417428631774e-05 3.388995368003140229e-03 9.487488277706089654e-05 -2.895652019435546824e-05 3.072004276780270285e-03 3.387912183778949663e-05 2.360421239399540310e-04 2.972998035793063525e-03 -1.212557524988876277e-05 -4.195628045670723815e-05 3.083000103949900140e-03 9.875608061889179891e-06 1.170433336786688672e-04 3.056998745568403029e-03 -6.121709884376711172e-06 6.042382127712731657e-06 2.988999667829742891e-03 -4.912554074196752115e-05 2.043748509714825621e-06 3.082997973456816105e-03 -1.671214404263956046e-04 -1.179576193975638066e-04 2.979994869823749618e-03 2.128791841753552977e-04 -9.995812960484811501e-05 2.965010088561375375e-03 1.786715998564529661e-05 -1.095376612434705607e-05 3.262000885898368261e-03 -2.111950311084022242e-05 1.604162827069733949e-05 2.934998915289539767e-03 -7.118598644663217132e-06 2.704130539614423983e-05 2.912999329446508152e-03 -7.612055240418167908e-05 2.804203995695562498e-05 2.960996505485397490e-03 2.088005830298537115e-05 -2.395826283315511543e-05 2.945001192666529474e-03 4.387942166334656425e-05 4.704196017329685437e-05 2.962001122609095316e-03 -2.612017660517236100e-05 -6.395815513932651543e-05 2.949999845892417333e-03 -1.911470588911255353e-05 6.039953725860285138e-06 2.816999138618569466e-03 4.288177247788648518e-05 -1.895887552697985811e-05 2.903002017675480016e-03 4.340963786912793157e-04 -2.690339695238149202e-04 -2.371978511127235435e-03 1.381220794467125719e-04 1.019574152613395154e-04 -2.995995823869342534e-03 -5.618970809074208496e-04 -3.420354864551332559e-04 -2.534018033967619377e-03 -3.903104520552786660e-06 4.939664017071728223e-04 -2.370007164495409411e-03 5.312393776297454539e-05 3.095681546678829947e-05 -3.042998278476790556e-03 -4.487469086800787349e-05 2.219564668472956989e-04 -3.073004977045134308e-03 -3.278839626474849508e-04 -1.780401924094876715e-04 -2.853010830145124958e-03 1.701216463538466044e-04 6.895753198674291716e-05 -2.985994052945208609e-03 1.681247809766874999e-04 -1.400436148276195758e-04 -3.066991171159048554e-03 4.308829934578684538e-03 -1.365944535941970069e-03 4.150194829114524711e-03 -5.017187263414495287e-03 2.712069868944547938e-03 4.650757249071862248e-03 7.094968004373534412e-04 4.011747524719701144e-04 1.236502321502665723e-02 9.748343794719651874e-04 4.407058102340820002e-03 4.151977217566546648e-03 1.630106969585176451e-04 8.799617195816537439e-05 -2.609946099018278960e-04 -1.133985926796660364e-03 1.796996478442124600e-03 -3.110716545970117447e-04 -8.238534890933392214e-04 -4.720504940714595889e-04 -3.607026858723902038e-03 -1.521938988069671244e-04 -5.698933925306030358e-03 4.652074605180137740e-03 9.890107423135710910e-04 -1.880005027532281707e-03 -2.999330726040477769e-04 3.812613273294609479e-05 -7.804396673382124811e-05 -3.098997343861281933e-03 1.212692917410183374e-05 -4.904421575695662591e-05 -3.117998813740889205e-03 -4.687204256950793776e-05 -3.604452400637805904e-05 -3.143001400558789998e-03 -3.787306054801019701e-05 6.795585173664694641e-05 -3.116002508583629298e-03 1.412570522150354871e-05 -4.377781623244367894e-08 -3.086999427038414172e-03 3.212660574151420277e-05 -4.604411799481927315e-05 -3.109998041864593492e-03 5.412675141797336552e-05 3.595583641540802783e-05 -3.111998308580614554e-03 -2.687251083828409774e-05 4.195564463717525142e-05 -3.130001692019402596e-03 -2.287388281298629065e-05 5.795612354861998924e-05 -3.096001756011820122e-03 1.849977147530981021e-04 -5.799936506969680160e-05 5.500835561660976037e-05 -1.280146790105593654e-04 -7.699480994019416557e-05 3.589958790851182041e-04 -6.899826393447242793e-05 -2.270006123067630879e-04 -4.699959134272886836e-05 2.079847162416938633e-04 8.700518215688089914e-05 3.770072361211520401e-04 1.399675559197413186e-05 -8.699890508513724509e-05 7.800180348482859847e-05 -2.119979770779345757e-04 3.499947127968385858e-05 -4.900912899660775238e-05 5.199744874819851637e-05 2.260009091737058215e-04 6.699891324743138387e-05 -4.300388641636444429e-05 8.100140890681921803e-05 9.699710051439009849e-05 1.098972347627879330e-05 3.300357836594240761e-05 2.529999798279795029e-04 1.554950164839871826e-03 -3.626984856017530061e-03 1.154114742598825452e-03 -1.579640638395653609e-03 -9.315613229143719122e-04 -1.807450512848281787e-01 1.861447681369728503e-05 -5.272867225113975730e-03 9.366075524336313698e-03 2.234669375300742632e-03 1.286113713839386009e-03 8.144072770927776941e-03 2.311954221955233452e-03 2.383014777493228792e-03 1.170060359909809314e-03 -4.552380002613082462e-03 2.651136594185143913e-03 9.382777044712345069e-03 -2.351044337603124760e-03 3.177018144968352196e-03 1.149859221455451237e-03 3.225953290136989674e-03 8.310139627466340629e-04 1.163119582663138009e-03 -8.779968373754204426e-04 -4.860005459485773030e-04 -8.702886243336027607e-05 -1.679949833366231788e-04 6.199840184606957461e-05 -1.220077200109115551e-04 5.698897557510993069e-05 1.400379755035118354e-05 2.710021223479038943e-04 1.070051033619862161e-04 6.899815816583027873e-05 -1.239966210193395736e-04 -2.599675798270442744e-05 -2.000111386371277380e-05 -8.000077511249181631e-05 -9.499641643732335578e-05 1.039988550837491713e-04 -8.600534288831121032e-05 1.120063124458637487e-04 5.299772891860159249e-05 -1.539961905429805577e-04 -1.899365309315798682e-05 -1.630022393761035293e-04 -1.589984625729198939e-04 4.100345962028595679e-05 -1.060012655603529813e-04 -8.699682752130163737e-05 -2.801263127291519627e-05 -9.995582958536922193e-06 3.099990013056278990e-04 -2.938378701509613417e-02 1.646764969124363612e-02 4.420057003363137005e-02 1.345432548305737497e-02 -7.825429656753495403e-03 4.097165885686294279e-02 1.591835107001471003e-02 9.165912308052420396e-03 6.522751831683352985e-02 -4.128263721380383560e-04 -3.367737297370500954e-02 4.420346070135720146e-02 6.771911866417413975e-04 3.962811818825521062e-04 1.987002197587160388e-02 -2.598367070151854350e-04 6.552916982026406800e-04 2.055998014775194463e-02 -4.118377237676523316e-04 -2.267080692706649676e-04 2.056798646296251892e-02 -2.365543638567796589e-05 1.557558063890928692e-02 4.095277824740543166e-02 4.371640318594340133e-04 -5.317094287156266938e-04 2.051902535922852169e-02 -1.458565988187382554e-04 -9.770167070800788258e-05 2.103399546534423514e-02 -2.938519767682298053e-04 1.362968997721387108e-04 2.092498612116294385e-02 4.431359865404383086e-04 2.623005476742877899e-04 2.122301434575499940e-02 -1.398576755627638105e-04 -6.870129260843355480e-05 2.106099529848910051e-02 1.351477425065370885e-04 9.029664893819733143e-05 2.093100424257961570e-02 3.014731109444588659e-05 5.929687293387248090e-05 2.094100040639161955e-02 -1.684391513016880883e-05 -2.070616683883708903e-05 2.072399962693441747e-02 -3.985108918098389532e-05 -3.417037385723532914e-04 2.089400324125888220e-02 6.114738229897786397e-05 -5.703193865841694908e-06 2.093800259029541741e-02 3.114233685756587661e-05 -7.014123298360352932e-07 2.106200129766579859e-02 7.013182925636805127e-05 -5.469779916783394804e-05 2.131900365113931217e-02 -9.185760983236473964e-05 -8.870135854582352766e-05 2.105899753664708732e-02 2.614103771269995298e-05 4.299045274092310029e-06 2.109400102314297823e-02 5.613539708039353999e-05 2.930099249524283493e-05 2.123300189019520709e-02 -7.886614233884168179e-05 9.130165112749274255e-05 2.127199551382271889e-02 -6.786995683613951944e-05 4.302946880479036663e-06 2.136399719513198264e-02 3.131669637815711671e-06 1.053023525213462095e-04 2.132599865439362488e-02 4.413286686328859971e-05 -8.169814742989143152e-05 2.129300297522096486e-02 -7.265443812560778201e-06 -9.255746985680578091e-06 -1.803900018139791006e-02 5.338683439461753113e-04 -2.433028155097560611e-04 -2.132897483076242814e-02 -5.441370390298466133e-04 -4.623001566600157589e-04 -2.120101562302872250e-02 -2.891311435478534884e-04 7.216979138655693583e-04 -2.132302202557022353e-02 7.586882554008683797e-05 5.786975997307977713e-04 -2.132500513503752734e-02 2.168670099991257499e-04 1.326979997739348167e-04 -2.128899307014847989e-02 4.718697424356119901e-04 -5.893033482187235014e-04 -2.136997244991092545e-02 1.948512706166440382e-04 1.057034896315823500e-04 -2.090299358356641560e-02 -6.501368305363639096e-04 -2.483000878617922414e-04 -2.120202297347939177e-02 -3.643260283905922804e-04 -2.072344275877732007e-04 -1.655501191292411967e-02 4.608568410064418897e-04 1.082701608276259156e-03 -2.102099660338523426e-02 -1.009739530334382695e-04 1.718299569641160152e-02 -3.092477290283737637e-04 -1.587118857789429540e-03 -2.823056207765171064e-04 -2.164406064646204678e-02 1.166854223526098827e-03 -1.262983631075359308e-04 -2.097995071358642674e-02 4.187706808291258818e-04 2.577314146155299814e-04 -1.892098661895827774e-02 -1.055118193851125978e-03 -1.253306533455421801e-03 -2.167902521632839030e-02 -1.378904410794317206e-02 -7.974976017112346202e-03 9.295515669830772734e-04 1.484200653643910975e-02 -8.688016270669975810e-03 -3.272724444138157317e-04 -3.014625078545861856e-05 -5.729724155675355315e-05 -2.096700043472297589e-02 1.385572574340728230e-05 2.270205762696860007e-05 -2.101399977718291720e-02 1.485882449424881853e-05 1.317010076761271407e-04 -2.108800128176949173e-02 -2.914144180929923613e-05 -5.229891532010662162e-05 -2.108500046478125126e-02 4.385639524917434728e-05 -6.298206882513719851e-06 -2.103099814438643897e-02 -2.414344259463988858e-05 -7.298210349855757404e-06 -2.103500089922283323e-02 -7.714284033240854477e-05 3.370163265567214833e-05 -2.104900363870322588e-02 -7.513978943034177536e-05 -2.229944641712232133e-05 -2.112500276323612397e-02 1.518589315803008241e-04 -4.329918464347641863e-05 -2.109399322189870613e-02
-9.461035439939422366e-04 -5.497042060968151045e-04 -1.202550308443261773e-01 4.879082580025054868e-04 -1.399968822188509465e-03 2.226039718574913083e-03 4.675912151140111878e-04 -5.960859665400079430e-03 9.924103561781015895e-03 1.949907868003413576e-03 -5.449695983924038442e-04 2.252087130447311646e-03 -9.700897599144537795e-04 1.128032319165034629e-03 2.225944506187939754e-03 -9.871377940773339629e-04 -5.659514054219746135e-04 3.372967829998534898e-03 5.009099174163471118e-04 1.965031507560398988e-03 2.249992539749599754e-03 4.425551871760996514e-03 2.557153255551183457e-03 1.105414396767007493e-02 -4.931401414058685963e-03 3.388144546875884473e-03 9.922751161996111458e-03 -1.551381539779619499e-04 -8.895180172254692100e-05 3.390994946936757345e-03 1.208750291838132950e-04 -4.995659726131993080e-05 3.068005633259150364e-03 2.587995974344822162e-05 2.140418324724384965e-04 2.951998021956572793e-03 -2.512606310561320969e-05 -4.095610014431366437e-05 3.094999560389917383e-03 1.687513194317903561e-05 1.330434983296271631e-04 3.068998803758990652e-03 -1.121957347857728837e-06 2.042463279907377503e-06 2.994999928139474490e-03 -4.812594638405006303e-05 4.043889504470678828e-06 3.092997985812844658e-03 -1.561208444858337631e-04 -8.495782650298339654e-05 2.965994849899931691e-03 1.998796885076873882e-04 -7.995828956145868227e-05 2.953009275646196335e-03 2.186766900531849877e-05 1.504606060750286373e-05 3.250000680171077731e-03 -2.411908492992309046e-05 3.004148884032081842e-05 2.924998594647594020e-03 -4.118475701057896700e-06 2.804126051366887285e-05 2.909999437434087136e-03 -5.812035743421917108e-05 1.704195497515692757e-05 2.955997394420763116e-03 1.188082495424880611e-05 -3.295852516339431031e-05 2.926000953796403185e-03 3.887915853668980998e-05 2.304204915746929110e-05 2.968001259265586056e-03 -1.512041310360096129e-05 -5.395807868652015711e-05 2.956000152038567360e-03 -1.111455084812257908e-05 -3.960109248282300075e-06 2.812999606166731448e-03 1.888145143251292036e-05 -1.295874331331407813e-05 2.911000955301035285e-03 4.330967608511386048e-04 -2.490340963429932904e-04 -2.380978835394989036e-03 1.511210997850496540e-04 9.895774534978062857e-05 -2.971995251987298060e-03 -5.788976055628003003e-04 -3.360352888334637014e-04 -2.521018811300753878e-03 2.097304250017900961e-06 4.959662552310407577e-04 -2.380006948516533594e-03 4.812393306568062075e-05 2.495681938237395220e-05 -3.042998397014465457e-03 -4.287458751291032058e-05 1.979564227503367445e-04 -3.076004555334320000e-03 -3.048836384669880340e-04 -1.800403238405605595e-04 -2.861009865202585219e-03 1.631210833200536143e-04 7.795773595594379624e-05 -2.971994465604051779e-03 1.521251874147845629e-04 -1.410437440775339196e-04 -3.076991808505606923e-03 4.300830762322869170e-03 -1.348944813235621780e-03 4.130194262344328779e-03 -4.969187522667243596e-03 2.693069916429419956e-03 4.656759473044644153e-03 6.744975631923139960e-04 3.871745105001350067e-04 1.234602198830321920e-02 9.858352275483206906e-04 4.398057795995067090e-03 4.130977793115301819e-03 1.590109037003292064e-04 9.199610420076993853e-05 -2.659948294916382743e-04 -1.140985833620553839e-03 1.759996441393441762e-03 -3.140714150629324514e-04 -7.928532768955420243e-04 -4.610505892344261836e-04 -3.612025752328267870e-03 -1.511941501600166666e-04 -5.655933826848792700e-03 4.659074036250652681e-03 9.560113187012893093e-04 -1.872005200183350085e-03 -3.139345298012279875e-04 4.212568793468231065e-05 -7.404381391046011571e-05 -3.087997237699156676e-03 1.112680779598468801e-05 -4.804417244067519269e-05 -3.114998868642292543e-03 -4.587232213120300955e-05 -2.904442554551235322e-05 -3.136001459088790227e-03 -3.987407856735167858e-05 6.795620774752335141e-05 -3.091002590048571880e-03 7.124891594082609391e-06 9.565112205471006041e-07 -3.066999726280727340e-03 4.012603329239838764e-05 -4.904392576935100834e-05 -3.095997673577508512e-03 6.012609831240981487e-05 3.395605856235851968e-05 -3.095998035914853969e-03 -3.387312948081333834e-05 3.195586278608690008e-05 -3.115001835301669901e-03 -1.987396504072800452e-05 5.695614955532306295e-05 -3.094001619673362406e-03 2.129990303339310438e-04 -4.199984068465377685e-05 2.300926898597269930e-05 -1.390150063353030603e-04 -7.899468790467191524e-05 3.669954595038460573e-04 -7.699660453487079095e-05 -1.880011731585400016e-04 -8.700047000512908216e-05 1.969868063344071361e-04 1.040044677005612925e-04 3.260065472172203171e-04 5.997752463125466355e-06 -1.139992532633301794e-04 5.300186054087324298e-05 -1.979963568752540455e-04 2.399889320703207324e-05 -8.900840291211004670e-05 7.199919110842263853e-05 2.150002838696910403e-04 2.399988365982458878e-05 -8.800231001988330229e-05 6.600089120913923361e-05 5.799548077879619249e-05 2.399288715384168791e-05 1.700246232056702668e-05 1.750007361157681382e-04 1.605951085730404539e-03 -3.594985207865058260e-03 1.132116365694252509e-03 -1.587681677160014768e-03 -9.215470254336846634e-04 -1.797370517533096734e-01 -2.538345027985465275e-05 -5.225867899556650882e-03 9.316073066310463432e-03 2.212672017472149325e-03 1.280112809509207847e-03 8.079071960196056515e-03 2.326954588405371303e-03 2.331014623975574945e-03 1.160061707975572256e-03 -4.543377360492368948e-03 2.593135651409531235e-03 9.316778233571638979e-03 -2.305043513821595624e-03 3.189017825393412192e-03 1.129860924500033061e-03 3.180953387287462335e-03 8.510139696238540460e-04 1.161117466671427552e-03 -8.779970973719303327e-04 -5.060004608797889162e-04 -8.102857888366852342e-05 -1.329957139900519330e-04 6.499862964121822277e-05 -1.040063373311456352e-04 4.998975789618430006e-05 2.500353365210344821e-05 2.520016813642103485e-04 8.100481677052355565e-05 6.699827776849951063e-05 -1.169976514124488351e-04 -2.399993029201668120e-05 -1.500000956217081194e-05 -2.000764632115594161e-06 -7.499700613500869342e-05 7.899903791548143061e-05 -7.200417404021657519e-05 9.500487469338738235e-05 3.699823845398693710e-05 -1.189966559857700006e-04 -9.996041525860490878e-06 -1.450014099349570900e-04 -9.999835133984858577e-05 2.900261076118641195e-05 -9.800095843150296855e-05 -6.599742961314434707e-05 -2.301373465760994189e-05 -1.499520407253883701e-05 3.369992757736016442e-04 -2.922478062443183144e-02 1.641264732666112419e-02 4.404257728817056322e-02 1.342333194283373485e-02 -7.792431872575609694e-03 4.081365712679724256e-02 1.578836271860850973e-02 9.116908340819592990e-03 6.494051371810009854e-02 -4.008194800646299881e-04 -3.350837533663202777e-02 4.403745879411970210e-02 6.651930042015983917e-04 3.772805532796300845e-04 1.982502175664072747e-02 -2.608341134427524148e-04 5.872907774357934456e-04 2.049498107117943627e-02 -3.528364434483564124e-04 -2.037085549814131021e-04 2.053698853943299041e-02 -3.564928990458521844e-05 1.552057849328589145e-02 4.080077853867350446e-02 3.851653866603119798e-04 -5.177098558684849021e-04 2.048602304328625556e-02 -1.408520561109941462e-04 -1.207032625337506928e-04 2.092199599514116617e-02 -2.458466243807906453e-04 1.072949907222588086e-04 2.079298848704164496e-02 3.901412505178054923e-04 2.242987460635176592e-04 2.109301272642575067e-02 -1.678526629583517815e-04 -6.370301455387492018e-05 2.093799408753079308e-02 1.581522233470090998e-04 9.229507137159416441e-05 2.082100515090591977e-02 1.915179037098922412e-05 7.295307816787077237e-06 2.083000069580914423e-02 1.616026187534676340e-05 9.292361184138372125e-06 2.062200054548441949e-02 -3.384631071837488573e-05 -2.717053879016491304e-04 2.077800249324838339e-02 1.715195952459596347e-05 1.529525267079144340e-05 2.082600050094905383e-02 2.714728367186203798e-05 2.429687528638935370e-05 2.094100078045078861e-02 6.413757873552093148e-05 -4.469979354001134351e-05 2.117800326516764212e-02 -8.985208822984388816e-05 -5.770327411731504151e-05 2.092399717870361761e-02 3.414759924632099143e-05 1.129675638436390331e-05 2.093300124981510926e-02 2.614084664567568685e-05 2.029911616145614232e-05 2.109900079629411368e-02 -5.986056986810662145e-05 8.329969389340749855e-05 2.113499640106835525e-02 -4.086427396312192353e-05 -1.869905914944936133e-05 2.122399862081366523e-02 -7.862082067330258923e-06 7.630017775674152085e-05 2.117199861776256076e-02 4.013921226548659003e-05 -9.070035603307615834e-05 2.113700294008244787e-02 -2.027167252315334323e-05 -7.253567604241601012e-06 -1.788600073926673029e-02 5.628607698458804997e-04 -2.433002011467070159e-04 -2.114297365003064977e-02 -5.481452153210441885e-04 -5.032973179648251401e-04 -2.100101520480974343e-02 -2.451376440558339820e-04 6.887001336865280912e-04 -2.116401976613438082e-02 7.286159368809624881e-05 5.997001257252437953e-04 -2.114700555509858165e-02 1.738602198159820862e-04 9.370038696073144349e-05 -2.112299426836661623e-02 4.788622795710366061e-04 -5.513007449891804907e-04 -2.118597270379102282e-02 2.418438844591317425e-04 1.377060331862931225e-04 -2.072099212354402975e-02 -7.141443826194668158e-04 -2.202974006829234131e-04 -2.101602597676414594e-02 -3.943310949884884183e-04 -2.292326460490456714e-04 -1.643101282275412703e-02 5.068505511531640022e-04 1.058703755641341414e-03 -2.086699439010291854e-02 -1.119762968857892680e-04 1.704999648481670890e-02 -2.542462913663227973e-04 -1.593124241554642840e-03 -2.933037446084432840e-04 -2.151206073495446486e-02 1.171849246201570180e-03 -8.629662315771950600e-05 -2.085695107720705183e-02 4.177650104467383729e-04 2.447333861133921436e-04 -1.878198647549741626e-02 -1.054124737370021412e-03 -1.237304251614977386e-03 -2.151802540260142060e-02 -1.366304571099836995e-02 -7.889975534488821718e-03 9.705554926623097180e-04 1.471600361485457184e-02 -8.623015137039951802e-03 -2.542784968635424772e-04 -3.414740269428232205e-05 -2.029682727243341833e-05 -2.093800112221058662e-02 1.185463725241459467e-05 3.670244199202435576e-05 -2.098700005713840383e-02 2.185744468132355041e-05 1.377014842395914878e-04 -2.105400108182171881e-02 -2.143648592788525188e-06 -6.229817085904511167e-05 -2.103099922359083496e-02 3.085456360572952340e-05 -5.297558702873159904e-06 -2.098599868797709767e-02 -3.214499938280696766e-05 -1.929766532845297069e-05 -2.099700105489180069e-02 -6.114382078013317072e-05 2.970196039522562245e-05 -2.102500293048086694e-02 -6.914135328228182716e-05 -4.329891235675841816e-05 -2.108700222121330861e-02 1.288573380016021740e-04 -5.029861369983998869e-05 -2.105499405927018994e-02