-4.702355832499999906e+02
-4.702355842599999960e+02
-4.702355862599999909e+02
-4.702355893000000151e+02
-4.702355934400000024e+02
-4.702355987799999752e+02
