-4.702369167599999855e+02
-4.702369172300000173e+02
-4.702369181199999844e+02
-4.702369194699999753e+02
-4.702369213000000059e+02
-4.702369233100000088e+02
