-1.579512694292093539e-02 8.722407118118308267e-03 2.784223317054169630e-02 3.055885208935042729e-02 5.360277078971487866e-04 3.643236785822457236e-03 -1.477014707173690197e-02 -8.136287613381332565e-03 -2.110248611779188752e-02 -6.821261799967952679e-04 1.704447098949516841e-05 3.098971984476734352e-03 3.448777683800912145e-04 1.835042787645855275e-03 3.036988029674482937e-03 3.298708605310999480e-04 -1.835955796637382589e-03 3.136039465339373559e-03 1.430851457583889310e-03 -1.742160598433738564e-02 2.787030529134601475e-02 1.403875059895821334e-03 1.622769865664801595e-02 -2.117717292570532595e-02 -2.840124445233019584e-03 -5.954448947682284090e-06 3.055884435008556985e-03 1.488405360176117776e-05 -1.219596759048349792e-04 2.845002337855202269e-03 -3.212542329498822141e-05 -3.956307334001045509e-06 3.079998750780655117e-03 6.864766918052506266e-06 1.050471073224336810e-04 3.322998793291738473e-03 -1.881256620056274596e-04 3.043899879465778200e-06 3.085992299077959088e-03 9.487824544310906956e-05 1.050423455685067407e-04 2.992002377034333558e-03 8.387038387946452016e-05 -1.059549661939406732e-04 3.181004920437368547e-03 4.388036372768123415e-05 5.404163408329782389e-05 2.939001023386132554e-03 4.186832206433633376e-05 -3.495419606990085245e-05 3.233002203492076933e-03 -9.412582261623065130e-05 6.043882988706138730e-06 3.089996084300954907e-03 2.958624188490513972e-04 -1.369523675159047525e-04 3.376013992587201425e-03 -5.941248065312508759e-04 3.043920042202458929e-06 3.064975766431927203e-03 2.908875304406240776e-04 1.580389737363697142e-04 2.765009607110707757e-03 3.687502536059678282e-05 -2.956517316585612439e-06 3.069001546351844429e-03 -3.513304731759476552e-05 3.480464454718022629e-04 3.273993637865019266e-03 -1.511735683976755258e-05 -3.629592270567938233e-04 2.875004533042776599e-03 3.228708381788417668e-04 5.260448607840604923e-04 3.182005692373344758e-03 3.088790954020409442e-04 -5.249582897964063383e-04 2.959020023318133588e-03 -6.381252967119843212e-04 1.044124627779301398e-06 3.076974003058849730e-03 -6.220022551765033800e-04 -7.999989457839273106e-04 3.998601380419528788e-05 -6.067447264443909596e-04 7.719118072686385629e-04 -6.254035656976316034e-03 1.238124628225860608e-03 -2.204436757863000715e-05 -3.060949272830020603e-03 -3.628735141673546821e-04 -9.270440071116578572e-04 -3.124001635978155937e-03 7.471251815112210518e-04 7.955832558118487911e-06 -3.073969692088738062e-03 -3.748762149378380426e-04 9.269574482325185476e-04 -3.022028410296656413e-03 -1.969874979118658477e-03 7.958016669855607554e-06 -3.070080330644940018e-03 1.002113138826165413e-03 -1.340402129975446345e-04 -2.780957295301663464e-03 9.781368980264679679e-04 1.499516110000126846e-04 -3.358962298549606970e-03 2.794491088303797130e-05 -1.758981321234480812e-03 1.319026077643629859e-03 2.530707981744961300e-05 1.771893547536666259e-03 -7.507024097997090639e-03 -4.787555550596702298e-05 1.956710240983861088e-06 -3.056001980115527830e-03 -1.537764086084262389e-03 -8.620811686560730502e-04 -5.810050402035941627e-03 3.084125118479162306e-03 -1.804598312348146578e-05 -3.072874158838758297e-03 -1.539984385786255039e-03 8.529960024771896399e-04 -3.670748034017944756e-04 -3.023874816144685000e-03 6.958785236723319121e-06 -3.074123236240535167e-03 1.509076890305514462e-03 8.969722917132482874e-04 -1.870951267950216523e-03 1.521175201282605211e-03 -9.080624389215854455e-04 -4.319925186160358463e-03 -2.187644122453766171e-05 -3.704301237928191647e-05 -3.035000368460145145e-03 -2.787190472629544880e-05 3.595543275384582361e-05 -3.145001647659728932e-03 5.712611082709248637e-05 -2.043953262819157844e-06 -3.096997647676992971e-03 -1.687282020821759523e-05 -4.104427811764678030e-05 -3.124000108062101409e-03 5.012590801227171424e-05 -1.043876892970061839e-06 -3.091997946905362688e-03 -2.087527594251383648e-05 4.695660402877895533e-05 -3.062001518646326366e-03 -9.087397284255679258e-05 -5.043809023494919771e-06 -3.095003631831527453e-03 4.912753606312808346e-05 -2.044443221687623298e-06 -3.131997973411266168e-03 4.812468325443622602e-05 -5.043449992713608256e-06 -3.061997971663898976e-03 5.930025281181139363e-04 4.998656659462955709e-06 -6.197592336647007882e-05 -3.139911881168429677e-04 5.399973251805099744e-04 -2.060204421480256399e-04 -2.980073924147516617e-04 -5.479973422088937549e-04 1.709956344417859573e-04 1.579983875903228068e-04 2.290005000865175078e-04 4.400318714574010627e-05 1.840093623813924780e-04 -2.640034758265888642e-04 -2.349887642153835688e-04 -3.339964875442840569e-04 1.299904222900429377e-05 -8.601378499525256193e-05 -3.189946958397645678e-04 1.299840666106597482e-05 -1.300131741415834811e-04 6.380009963603402653e-04 2.499916017884351230e-05 -2.397437451876391324e-05 -3.060000428177640482e-04 -2.999746225078487471e-06 9.875819519191155995e-07 2.549697702787056056e-02 -1.880120244686318343e-04 5.610409244398772500e-04 -1.260514679140356357e-02 6.982714716401703693e-03 -2.081861231101908918e-02 -1.289987878368728004e-02 -7.116685870771340648e-03 2.144357562494973723e-02 2.761157204095125543e-03 1.331129490336896079e-02 2.095292373130339808e-02 2.830810037023454625e-03 -1.291428776955365343e-02 -2.014070164963088078e-02 -5.594006168472973745e-03 2.100653510327445003e-05 1.517719096845218370e-04 2.630206680030420271e-04 3.354993512970442290e-03 -4.430368564007766880e-04 -5.440052956087282170e-04 -2.997730936391519907e-06 1.299778902694351636e-04 2.779675968691865660e-04 -3.415989867537944178e-03 7.300597509580075001e-04 -3.300030301571876785e-05 2.900013925831251987e-05 7.998245049335815711e-06 -1.000077055337226785e-05 4.000277207670214459e-06 1.899953606277259707e-05 3.599991071770801925e-05 4.200001434129038708e-05 3.000870481785780926e-06 2.600135079333603692e-05 -4.300050239860751301e-05 -3.399833158243553569e-05 -1.200242600183116658e-05 2.200086006145781240e-05 5.999919938321441937e-05 -2.000012292950552177e-05 -9.999418065899802382e-07 2.999199757952339347e-06 -1.999389185741028806e-06 -2.111009381364387748e-10 -1.500008142775825737e-05 2.998472953520714140e-06 -2.599947776793892944e-05 3.700049075000835742e-05 -3.002556032531989650e-06 -3.999911862366655472e-05 6.200044489035024323e-05 1.956162089640453919e-03 4.145202315417458386e-03 -1.266879792310356134e-01 1.936242455190352769e-03 -4.208649892553502532e-03 1.658671386689859750e-01 -3.891860630917890005e-03 5.330270851549674595e-05 2.113584078409884784e-02 2.594197823363934233e-03 3.723278276941780710e-03 1.977105286841616960e-02 -5.281862565634524477e-03 -7.869556510574804865e-05 2.118078605353874294e-02 2.687079769949315446e-03 -3.816682749468313426e-03 2.252516355323175290e-02 9.170140232975463809e-03 7.829218328348504349e-05 2.111537232543156742e-02 -4.637916372602561392e-03 -3.046773971759957024e-04 2.249781548071712670e-02 -4.524802465162023127e-03 4.892830716386938625e-04 1.971580882761525197e-02 1.211367227670313786e-04 -4.569954043698879137e-05 2.119900560041439869e-02 5.915506451001999833e-05 1.322941706163010666e-04 2.075200055249526443e-02 -1.698545791369313268e-04 3.729768171390822980e-05 2.098699257408943170e-02 -9.283436288336712632e-05 9.290575061731424483e-06 2.048999610703435698e-02 2.401462043554675261e-04 -5.370293703904448343e-05 2.096601055983438391e-02 -1.348720421876999673e-04 -5.869629176265922743e-05 2.141399535998757264e-02 -5.085277030503404706e-05 7.296950539598672742e-06 2.094199784524545041e-02 1.612367972308291830e-05 9.430512119139630018e-05 2.152199933953788738e-02 5.016800891826070672e-05 -1.337104017378200045e-04 2.042900395759294357e-02 2.551314814710952186e-04 7.330221192072232785e-05 2.133000936973281775e-02 2.031495685693878762e-04 -2.170407065063246712e-05 2.088400859955068939e-02 -4.598603706585687573e-04 2.529992203094476476e-05 2.112898093504376323e-02 -6.183566665960710934e-05 2.162910611686156843e-04 2.052599443455023487e-02 1.341411762157067148e-04 -2.670109599754882549e-05 2.109000586050928383e-02 -7.888300091649430774e-05 -2.206925643005459143e-04 2.167999993690564869e-02 2.891397320769669159e-04 1.299293035857357466e-06 2.112601177523036264e-02 -1.948792183087345224e-04 1.373063072005164522e-04 2.159399013772753811e-02 -1.238426653075024063e-04 -1.927065650859511843e-04 2.068999770841026958e-02 2.713590424939747985e-03 -1.487208099129701255e-03 -1.452786842849143785e-02 -5.571130578827822137e-03 -1.829834725240465695e-05 -2.135122662153482107e-02 2.840141592990206437e-03 1.437600699414208656e-03 -2.800690475509228297e-02 2.338625995471662992e-04 1.269948932140602422e-05 -2.118299067666093091e-02 -1.411959256257713357e-04 1.143720468234381586e-03 -1.972402198338686630e-02 -9.207527559309580439e-05 -1.098322188359272507e-03 -2.272998819872509499e-02 1.055656828098002799e-03 3.795771520696227756e-03 -1.605701084336563084e-02 1.047076613222170608e-03 -3.851376714514218730e-03 -2.651290278277617513e-02 -2.078135879327004491e-03 2.870077502847711860e-05 -2.122008505007853471e-02 1.469183765498493577e-04 7.266803322795796667e-04 -2.253900434103756067e-02 -2.571358456015163498e-04 2.169933501538748495e-05 -2.122101079816337763e-02 1.068132033816622149e-04 -6.652833978152961330e-04 -1.998298623680091340e-02 1.338865361354230890e-03 -4.730235415117765147e-05 -2.125194482939049903e-02 -6.851528977507094541e-04 2.937056814955554709e-04 -2.079703208343346849e-02 -6.651121130489799377e-04 -4.043087245562948778e-04 -2.181202137199400246e-02 6.459397717156760595e-04 5.406724415295016163e-04 -2.306798138377709126e-02 6.027927760714342194e-04 -4.902766264123730290e-04 -1.947796852083680946e-02 -1.243131807935552629e-03 2.869870344715059197e-05 -2.132005104807489088e-02 3.286005704956746317e-05 9.370055407437088480e-05 -2.111900001001034213e-02 -9.147820868464941253e-06 1.770330910458084561e-05 -2.092700064295454840e-02 -4.115461497859945679e-05 -2.629431232107616614e-05 -2.076100132235450535e-02 9.885282352323863778e-05 8.702997697177495702e-06 -2.094299611748788245e-02 -7.814582632361190306e-05 -8.729735992566272089e-05 -2.097800196398070041e-02 -5.114810431236323685e-05 1.970344123478531598e-05 -2.092000238159233069e-02 -8.142674396964482390e-06 -1.429849225520047316e-05 -2.105400014842720782e-02 -3.915132597011786701e-05 1.370455188527000519e-05 -2.084100180794897297e-02 4.185443281477773390e-05 -1.629752478133585897e-05 -2.098299808409512593e-02
-1.569312100013859484e-02 8.667404954122324631e-03 2.769523810398214977e-02 3.036685310282923392e-02 5.300275037881315180e-04 3.618229052508863727e-03 -1.468215147276992309e-02 -8.088286136910139562e-03 -2.099348321499096628e-02 -6.751254086573612581e-04 1.404419613071261081e-05 3.079972312073644535e-03 3.428786986924823622e-04 1.827042463123360700e-03 3.013988061676269124e-03 3.248714368955949654e-04 -1.827955991212343355e-03 3.122039148326025138e-03 1.426857126453239715e-03 -1.730660792357495772e-02 2.773330349814717016e-02 1.398870500683071583e-03 1.612570022013077101e-02 -2.106717168327995951e-02 -2.831123997311244499e-03 -5.954611950396682537e-06 3.044884801506442685e-03 1.888495729265870121e-05 -1.119599909493257058e-04 2.823002358981423383e-03 -4.212476940253357234e-05 -9.565263490677328246e-07 3.063998301053727155e-03 1.486550302083145915e-05 1.090468458577446723e-04 3.304999062364226501e-03 -1.761247254362600229e-04 3.043564394218552899e-06 3.062992787749553147e-03 8.587897764212038259e-05 1.040420974152564079e-04 2.974002024741169946e-03 8.187132281116405992e-05 -1.029552907175441468e-04 3.158004796483757266e-03 4.688130030451329245e-05 5.404130564501599671e-05 2.916001145570066514e-03 4.086904563740409126e-05 -4.695445048601149522e-05 3.215002332921119716e-03 -9.512488995394843198e-05 1.043557682912998250e-06 3.066996114490302006e-03 2.868620852540610050e-04 -1.469522470455683269e-04 3.384013767869739099e-03 -5.841249694229047910e-04 3.043968923422352250e-06 3.068976173636720189e-03 2.888874466498823771e-04 1.550390036582551673e-04 2.767009568200436316e-03 2.587457822405355131e-05 -1.956352747979712854e-06 3.080001084234492825e-03 -2.213333002353658826e-05 3.510465345371173549e-04 3.280994124696286034e-03 -1.411751423894258686e-05 -3.559591711293142086e-04 2.879004474515564974e-03 3.128707896305608937e-04 5.160448827928256106e-04 3.183005426941538582e-03 3.088789802916822535e-04 -5.159582472639276038e-04 2.962019895715473344e-03 -6.281252137114513075e-04 3.044088442025392780e-06 3.074974381913693228e-03 -6.200015574388674337e-04 -7.929991883731464693e-04 2.298599601735641884e-05 -6.057457045289539295e-04 7.709121467528318996e-04 -6.230035602100012296e-03 1.233124712805981713e-03 -1.804439201964319991e-05 -3.062949533143470918e-03 -3.568737545795037632e-04 -9.220439267433666120e-04 -3.118001462547444376e-03 7.401250178500932628e-04 6.955894750373844328e-06 -3.069969962960650538e-03 -3.758762157205820537e-04 9.259574490156155264e-04 -3.022028436839744019e-03 -1.962875144358545293e-03 4.958067900366404469e-06 -3.066080003069410718e-03 9.951130550395707181e-04 -1.370401791606783745e-04 -2.778957537816189888e-03 9.761370569936194275e-04 1.449515558553276563e-04 -3.362962309098773642e-03 3.094527815168337013e-05 -1.757981451183728439e-03 1.310026185636786050e-03 3.130527712548389623e-05 1.757894166663097031e-03 -7.463023655224197868e-03 -5.487641455566890091e-05 -3.042986543836362787e-06 -3.035002194292189728e-03 -1.534765545768402911e-03 -8.540806606052349110e-04 -5.774050393328961604e-03 3.076124347924131305e-03 -1.404570748180356107e-05 -3.053874541334283214e-03 -1.534984753845109037e-03 8.509961261625688042e-04 -3.580745714503783374e-04 -3.010875794239200546e-03 5.959115324962820173e-06 -3.050122692714018254e-03 1.503076405578278102e-03 9.019724665442654769e-04 -1.858951583175295777e-03 1.514173900572251272e-03 -9.050619797514632007e-04 -4.287925513769354040e-03 -2.087737858826080827e-05 -3.804268707288391076e-05 -3.012000313582911294e-03 -2.387296268787986037e-05 3.695579824443983485e-05 -3.119001498978257302e-03 5.112505287380207322e-05 -1.043579942263590227e-06 -3.070997906204033043e-03 -1.787367456145494903e-05 -4.004397960104880670e-05 -3.103000162980237234e-03 4.612488921101554415e-05 -2.043519316000546102e-06 -3.066998095634243179e-03 -2.087629866495504293e-05 4.095695847426790225e-05 -3.037001433602985658e-03 -8.887498851449541430e-05 -2.043456144905584679e-06 -3.070003592946355178e-03 5.012651804129840372e-05 -2.044089559799698599e-06 -3.106997932713654806e-03 4.612358614413518025e-05 -2.043065626548923095e-06 -3.034998095663990307e-03 5.889989830576300650e-04 1.999893259946613436e-06 2.502395620254079981e-05 -3.029942923126890887e-04 5.279983940812096226e-04 -1.300198241561512189e-04 -2.940093360483609286e-04 -5.339966648081122215e-04 2.189955987918811638e-04 1.449934314122259562e-04 2.440022399549896610e-04 1.660024449948125649e-04 1.660050107514548417e-04 -2.570019447092598505e-04 -1.279895965345149652e-04 -3.080010929386371677e-04 8.000623962484341482e-06 2.698734453064918247e-05 -3.090002863567423846e-04 -1.999658809418651614e-06 6.987445606024707799e-06 6.259976885793702706e-04 1.300031797743154143e-05 5.702530688888683138e-05 -3.090028494189426341e-04 1.001234391386796927e-06 6.998740301416959573e-05 2.532498395917532827e-02 -1.770143000196136682e-04 3.910337646561188544e-04 -1.252114569516982884e-02 6.926714253657401121e-03 -2.084660809648681071e-02 -1.280286926446906788e-02 -7.076689250152319588e-03 2.121057900797835086e-02 2.764171406996529523e-03 1.319628992462539355e-02 2.060192548423503758e-02 2.822811707418066557e-03 -1.280928831623428556e-02 -2.017970346402660209e-02 -5.575000144155132370e-03 1.800442191293616688e-05 3.772726051564005838e-06 2.690276242095461642e-04 3.345991083870365930e-03 -6.140364843168373814e-04 -5.350002838185775747e-04 1.000518147410154598e-06 6.978200160381949287e-06 2.629712359242848555e-04 -3.396991117618704519e-03 6.410588708504691164e-04 -5.599974935992562341e-05 7.999958780206060707e-06 -6.002393784192678626e-06 1.699938682257956375e-05 -2.999800643701768026e-06 1.500073477381540902e-05 3.600070319445060655e-05 1.399973078820584961e-05 -1.699873252224516818e-05 1.800249019991806993e-05 -4.400089311280761922e-05 -6.199864314545224420e-05 9.978324167494687920e-07 4.000076481392100613e-05 5.399947356011411235e-05 -2.199955283608655813e-05 -1.000138729732753541e-06 -1.100088167073551576e-05 -1.099820435604866302e-05 4.999384789457676179e-06 -4.400051877727728617e-05 2.199971023443219359e-05 -5.999917980743019352e-06 7.000980918798180317e-06 -1.400155913391113619e-05 -1.499945028031784337e-05 3.799964253921163604e-05 2.042130407213431451e-03 4.195213292577337078e-03 -1.259089764386547294e-01 1.915289005421472440e-03 -4.148666067158936904e-03 1.647251369642439012e-01 -3.944854284666496347e-03 9.730055245157601563e-05 2.098083800221623579e-02 2.616205066953767970e-03 3.717275736068894991e-03 1.959305384950694312e-02 -5.241852846732668325e-03 -1.476989990895254741e-04 2.094078866086157217e-02 2.628089870308738824e-03 -3.866686233537545026e-03 2.227616185982117872e-02 9.194146929979083588e-03 1.022898393307182589e-04 2.095137296261812693e-02 -4.664908110167511994e-03 -3.096802541270542012e-04 2.229481445233166825e-02 -4.519797982764455629e-03 4.412814939932667218e-04 1.960480971185533938e-02 7.914144404360575207e-05 -1.007011663476631123e-04 2.108200467002440542e-02 7.115867376693194816e-05 1.132928993984752910e-04 2.066300131060571851e-02 -1.458502525863216988e-04 -1.703854098171730044e-06 2.087999410442209838e-02 -1.158315961978906132e-04 6.289628980860745966e-06 2.042199521305127982e-02 2.611495802748849625e-04 -6.704116065921683702e-06 2.088401074869360510e-02 -1.388681830824817914e-04 -1.869762134747121032e-05 2.131999463008101350e-02 -9.884939200264886248e-05 5.295811366600633727e-06 2.085899591907727779e-02 5.512703290394001227e-05 1.123039280735118250e-04 2.144000067252756561e-02 5.117302933435500612e-05 -1.187121463911579961e-04 2.030600378576168791e-02 2.081396828289812720e-04 4.229938481000344489e-05 2.112800789555126235e-02 2.091565584445706711e-04 -3.970651392759727880e-05 2.071200909923543235e-02 -4.168524050810604371e-04 5.297109516235098092e-06 2.093298296977783371e-02 -6.982594612581148846e-05 2.012876789410053037e-04 2.028699432167205274e-02 1.351479570308033323e-04 2.965497027028119522e-07 2.092400551858483726e-02 -6.487504390926046908e-05 -1.996953399347049557e-04 2.148500020944580161e-02 2.701482419647143808e-04 2.963447536542186040e-07 2.091701101590624431e-02 -1.558703286607828712e-04 1.533031859026642266e-04 2.137599149919916855e-02 -1.268340473498467123e-04 -1.597095542551111387e-04 2.047899711857767077e-02 2.717581327000453354e-03 -1.405204912265995559e-03 -1.430286942839379891e-02 -5.490146110748683229e-03 1.170700523971112052e-05 -2.096922374883389631e-02 2.766124771426789648e-03 1.432606612785913272e-03 -2.759390769793037407e-02 2.848507724390733826e-04 -1.029643904842392854e-05 -2.089298827407854581e-02 -1.532082836196791754e-04 1.118724773504850859e-03 -1.942102211787466101e-02 -1.280881222421594804e-04 -1.175317708335904413e-03 -2.241598857327984154e-02 1.093647488889800063e-03 3.777774737659326653e-03 -1.582800904098642311e-02 1.051060200394589089e-03 -3.802370989821816320e-03 -2.610890331497874028e-02 -2.136146833968435334e-03 2.770463426930768001e-05 -2.095108739796019970e-02 1.299047695098161056e-04 6.666850668024189340e-04 -2.220600418293577558e-02 -2.611472991242708023e-04 7.703322109280531438e-06 -2.094001076281930968e-02 1.318017302704993119e-04 -6.522794192532182633e-04 -1.970098540335270612e-02 1.281853731696306524e-03 -2.629825467303992454e-05 -2.096594744847790626e-02 -6.521658289830132172e-04 3.167101641932892225e-04 -2.047903106602955506e-02 -6.351257380752410630e-04 -3.313039843142967598e-04 -2.147602118565754628e-02 5.879258569651184350e-04 5.036773215752276102e-04 -2.272698322132619964e-02 6.007823938260371116e-04 -4.882730095087647664e-04 -1.922296863087108801e-02 -1.187144605295791357e-03 1.470311142852127281e-05 -2.100604856951043473e-02 8.561180996746607419e-07 5.570194020243358197e-05 -2.102300077441180554e-02 1.849930073329186434e-06 5.704080271577844452e-06 -2.087200002494315337e-02 -9.156459196543082927e-06 -4.129369937464963652e-05 -2.071599980666264523e-02 8.184960659097755670e-05 8.704131053945841150e-06 -2.086399680981579005e-02 -5.414914978092869393e-05 -6.729621614036690339e-05 -2.089600127031177382e-02 -4.015116384452058809e-05 6.470451012973867208e-05 -2.084400257173297383e-02 -3.914561802533620826e-05 -2.929744717954131525e-05 -2.098200119817407103e-02 -3.615429545963294892e-05 1.770558451493980750e-05 -2.076800174256533335e-02 7.485085797279486400e-05 -5.296302975325966975e-06 -2.089499689634424090e-02