9.863695532104851237e-07 1.720709998884815961e-01 -1.117190001718831871e-01 -4.100002862102686789e-05 4.049999972627494477e-04 3.639999998217691005e-04 -9.999814476835931685e-07 -2.780000005231262825e-04 -4.479999997167924538e-04 4.099997153023341719e-05 4.030000034644306032e-04 3.639999993711387364e-04 1.168000213182332232e-03 -2.746999910681955162e-03 9.829999962967224478e-04 -1.168999786666400200e-03 -2.749000087429867307e-03 9.830000091986224823e-04 -7.700000863437182405e-05 9.299999388679558573e-05 -2.899999996678666466e-04 7.799999152792795566e-05 9.100000561148329967e-05 -2.880000005214465001e-04 1.339999777762379215e-04 2.340000093153748019e-04 -8.200000009733976686e-04 1.999966399486737843e-06 4.079999996548175096e-04 -4.970000004185813397e-04 -1.350000220780206742e-04 2.319999889698366193e-04 -8.209999994865588291e-04 -2.000032399821120744e-06 3.929999993642830551e-04 -4.850000003815187893e-04 1.200000219134548726e-03 -2.832999908361674181e-03 8.829999962059905099e-04 6.899999253097634678e-05 8.000000496177619503e-05 -2.570000004607801355e-04 -6.900000738235327028e-05 7.899999452679837839e-05 -2.549999996980412565e-04 -1.199999781011184749e-03 -2.831000089873293886e-03 8.840000094516458663e-04 4.005415990757957687e-06 -6.729999994069062186e-02 5.907300006720230673e-02 -4.607999683093224989e-03 -2.780000329203919686e-03 1.932200002821236884e-02 -9.998365077322834019e-07 -6.969999800291678572e-04 2.006900000070173731e-02 4.611000317236869234e-03 -2.783999631963580100e-03 1.932699997732881952e-02 7.280003601469183872e-04 -3.226999923933783140e-03 2.103099999920492180e-02 -7.219996396797375348e-04 -3.229000033593661372e-03 2.103500000721070934e-02 -1.579999200653256876e-04 4.700000089479214370e-04 2.092100000040266264e-02 1.540000798259240041e-04 4.710000325385685837e-04 2.091499999867947254e-02 7.260001207375253122e-04 -7.599992428382928490e-05 2.083199999606849886e-02 1.601895816912771404e-10 -6.779999802911580199e-04 1.973100000067723805e-02 -7.259998789433899256e-04 -8.000003409596673849e-05 2.083500000408732358e-02 2.000265974150324801e-06 -2.133999980924011861e-03 1.894600000212056518e-02 -8.625999942698027792e-03 1.165999373940792639e-03 2.635700004644958225e-02 -9.299989511030675284e-05 1.650000142055049626e-04 2.126300000034853088e-02 9.000010513314305523e-05 1.620000280488387583e-04 2.126599999934139507e-02 8.632000057264934897e-03 1.167000679174770962e-03 2.636399995118691650e-02 9.158999805928533244e-03 1.535000678586391195e-03 -1.412700005208963189e-02 1.099988241636966220e-05 1.609999817573792174e-04 -1.909600000022153646e-02 -1.200011740477047951e-05 1.589999800228776561e-04 -1.909100000009258252e-02 -9.161000193730258270e-03 1.530999293047063730e-03 -1.411999995096188502e-02 1.000045105622022446e-06 -2.159000021310317555e-03 -2.140999999784894484e-02 -7.430000953867240809e-04 -1.630000756853646642e-04 -1.951399999573593183e-02 -1.000064888289480570e-06 -6.480000206864543156e-04 -2.063399999934720924e-02 7.419999046353509178e-04 -1.629999633704365544e-04 -1.951000000393291606e-02 1.539998538741855919e-04 5.099999921839420145e-04 -1.948500000135948429e-02 -1.520001462991534913e-04 5.119999690370876213e-04 -1.948899999967240726e-02 -7.139998627370945389e-04 -3.229000073353234610e-03 -1.937499999283345126e-02 7.060001374621929175e-04 -3.231999965963263093e-03 -1.938000000066865056e-02 4.645000092870070832e-03 -2.767999669774746669e-03 -2.110100002287483914e-02 2.999940607674002208e-06 -6.960000200463125957e-04 -2.029599999932134302e-02 -4.646999906973122221e-03 -2.770000372530101711e-03 -2.109999997158234358e-02 -2.994415738756788992e-06 -7.224599997846115063e-02 2.179000007218138968e-02
9.863765972874555722e-07 1.719809998885245550e-01 -1.116760001717932993e-01 -4.200002830746611682e-05 4.009999971891169525e-04 3.659999998312844869e-04 1.869253720846576689e-11 -2.800000004494937705e-04 -4.499999997203145874e-04 4.199997168701377837e-05 4.010000035410597415e-04 3.649999993676165673e-04 1.166000212966480975e-03 -2.743999910831217744e-03 9.849999963047655419e-04 -1.166999787027992201e-03 -2.744000087275609828e-03 9.860000091825883977e-04 -7.700000871000208132e-05 9.399999388679558293e-05 -2.899999996688655221e-04 7.699999129551735077e-05 9.400000553485413145e-05 -2.890000005189232606e-04 1.339999779164587101e-04 2.320000093133770566e-04 -8.220000009713999663e-04 -3.344925274096505659e-11 4.059999995035570007e-04 -4.970000004055439170e-04 -1.340000221591707973e-04 2.329999890444679983e-04 -8.219999994930776190e-04 -3.217845020916292137e-11 3.899999995145446755e-04 -4.860000003895618048e-04 1.200000218918697518e-03 -2.829999908359676682e-03 8.849999962029939321e-04 6.699999246086595810e-05 8.100000481151455316e-05 -2.560000004507393149e-04 -6.700000753913366695e-05 8.099999467706002541e-05 -2.559999997110786493e-04 -1.199999781005665076e-03 -2.831000089872295119e-03 8.850000094516458906e-04 5.412259500486963634e-09 -6.725299994102511281e-02 5.904100006717744042e-02 -4.602999683439905343e-03 -2.776000328833759523e-03 1.931400002818077846e-02 1.633614389019339923e-10 -6.959999799635263303e-04 2.005900000069521863e-02 4.604000316478918178e-03 -2.774999632506976698e-03 1.931299997735846929e-02 7.240003598167981357e-04 -3.222999924241298775e-03 2.102599999922300303e-02 -7.229996401887176785e-04 -3.223000033679280455e-03 2.102500000721023443e-02 -1.559999201426036668e-04 4.700000090851976409e-04 2.090700000039162273e-02 1.570000798573954032e-04 4.700000327574682733e-04 2.090699999866390754e-02 7.250001209627682892e-04 -7.999992437344381454e-05 2.081799999607801543e-02 1.602525245200808393e-10 -6.799999803071401843e-04 1.971500000067923433e-02 -7.239998790427474651e-04 -8.000003396268600938e-05 2.081700000407628315e-02 2.660426130151521094e-10 -2.135999981090255448e-03 1.893100000213359876e-02 -8.620999942958037024e-03 1.168999374312950637e-03 2.635100004641898613e-02 -9.199989508987506056e-05 1.640000142711464410e-04 2.125300000034401060e-02 9.300010483449413742e-05 1.650000282627441135e-04 2.125299999932183867e-02 8.622000057041914051e-03 1.169000678405482949e-03 2.635099995124011787e-02 9.153999806243739643e-03 1.532000678224221951e-03 -1.411100005205903618e-02 9.999882720538413701e-06 1.579999816957332250e-04 -1.908200000021301884e-02 -1.000011728498138486e-05 1.579999801821291771e-04 -1.908300000010262204e-02 -9.155000193756208937e-03 1.531999293509834961e-03 -1.411099995099600150e-02 4.503715934116580511e-11 -2.157000021370964957e-03 -2.139499999784542569e-02 -7.400000953850764543e-04 -1.620000754444896388e-04 -1.949999999575349058e-02 -6.521676207306936173e-11 -6.430000206018341661e-04 -2.062499999935772307e-02 7.399999046038795159e-04 -1.619999635137060680e-04 -1.950200000392287442e-02 1.519998539183444472e-04 5.099999920406725036e-04 -1.947700000134844692e-02 -1.520001460871745651e-04 5.099999690480753111e-04 -1.947799999967040827e-02 -7.069998627740857206e-04 -3.228000072816830657e-03 -1.936799999287308963e-02 7.070001373015403091e-04 -3.228999965875646149e-03 -1.936800000067716646e-02 4.639000092687339469e-03 -2.764999670220537244e-03 -2.109300002284471634e-02 -5.941827754838232809e-11 -6.950000202642134641e-04 -2.028699999930578049e-02 -4.639999907307114542e-03 -2.765000371992699327e-03 -2.109199997162597776e-02 5.579948670798659445e-09 -7.218999997824825099e-02 2.177600007210889199e-02
9.863917978158398877e-07 1.717859998886064610e-01 -1.115940001715985119e-01 -4.200002831298597304e-05 4.009999971881180771e-04 3.649999998312844626e-04 1.861138709541389770e-11 -2.790000004504926759e-04 -4.509999997213134872e-04 4.199997161138352110e-05 4.020000035410597659e-04 3.649999993666176918e-04 1.165000212809700871e-03 -2.741999910907847154e-03 9.839999963082877651e-04 -1.164999787109142300e-03 -2.743000087125348381e-03 9.850000091705497177e-04 -7.900000871552191161e-05 9.399999373453619294e-05 -2.909999996578258204e-04 7.899999128447761918e-05 9.400000568411689505e-05 -2.910000005299629810e-04 1.339999780787589506e-04 2.300000093153748131e-04 -8.200000009694021668e-04 -1.000033384662191229e-06 4.049999994259289682e-04 -4.990000003990250916e-04 -1.340000219212402995e-04 2.299999890464657847e-04 -8.199999994900809440e-04 9.999678916601900253e-07 3.889999995891760872e-04 -4.870000003940828438e-04 1.199000218837547671e-03 -2.828999908436305791e-03 8.839999962075148141e-04 6.899999253097634678e-05 8.000000496177619503e-05 -2.570000004607801355e-04 -6.900000746902323998e-05 7.999999452480063822e-05 -2.569999996990401264e-04 -1.197999781243595579e-03 -2.828000089723031740e-03 8.830000094376095439e-04 5.406602719712986982e-09 -6.718199994107705575e-02 5.898900006710652150e-02 -4.597999683646362794e-03 -2.774000328465597159e-03 1.930400002815118102e-02 1.632195703794209779e-10 -6.949999799755128115e-04 2.004700000069421784e-02 4.598000316272460135e-03 -2.772999632970746513e-03 1.930299997738959064e-02 7.220003594314791402e-04 -3.218999924407542432e-03 2.101099999923004488e-02 -7.219996404873665636e-04 -3.220000033616635723e-03 2.101200000720171782e-02 -1.549999201332116869e-04 4.690000091488414225e-04 2.089500000038710392e-02 1.560000798667873887e-04 4.690000326698515404e-04 2.089499999867042851e-02 7.240001208264197586e-04 -7.899992446006170468e-05 2.080699999608253553e-02 1.600515853061381841e-10 -6.779999803161300149e-04 1.970600000067724081e-02 -7.229998791790960555e-04 -7.900003389804338499e-05 2.080600000406976693e-02 1.000265933863622048e-06 -2.134999981020618311e-03 1.892500000212708061e-02 -8.619999943489095595e-03 1.174999374374596350e-03 2.633700004640747439e-02 -9.099989522622373226e-05 1.650000143357890654e-04 2.124200000033749439e-02 9.100010476825589549e-05 1.650000280994970935e-04 2.124099999933287686e-02 8.621000056505335324e-03 1.175000678314869597e-03 2.633599995123964491e-02 9.149999805893187926e-03 1.537000677926695421e-03 -1.410600005204195109e-02 7.999882759177406056e-06 1.579999815514648387e-04 -1.907500000020198247e-02 -9.000117240822544683e-06 1.579999802657504652e-04 -1.907500000010814434e-02 -9.151000194095719811e-03 1.536999293819348239e-03 -1.410399995102307527e-02 -9.999549242016680878e-07 -2.157000021439603194e-03 -2.138799999783990574e-02 -7.390000953464374162e-04 -1.620000753618672262e-04 -1.949299999575901041e-02 -6.538293443654713893e-11 -6.400000205908464631e-04 -2.061399999936072008e-02 7.379999046645979331e-04 -1.619999636539789525e-04 -1.949100000391183751e-02 1.499998539569834125e-04 5.099999918964041173e-04 -1.947000000133740708e-02 -1.510001461076062766e-04 5.109999691336942389e-04 -1.946799999967692776e-02 -7.069998629457779167e-04 -3.225000072806841721e-03 -1.935799999287608417e-02 7.070001371022487709e-04 -3.225999965870651916e-03 -1.936300000068015906e-02 4.635000092574717220e-03 -2.762999670516065771e-03 -2.108600002282463512e-02 -5.935203928351563941e-11 -6.950000202522269585e-04 -2.027499999930578237e-02 -4.634999907489847047e-03 -2.762000371606556856e-03 -2.108399997165657028e-02 5.573098365468557464e-09 -7.210299997829719421e-02 2.172700007202198885e-02
-1.013586671370250549e-06 1.715099998885740717e-01 -1.114750001713117888e-01 -4.200002831298597304e-05 4.009999971881180771e-04 3.649999998312844626e-04 1.862794666163057310e-11 -2.790000004474960495e-04 -4.479999997213134685e-04 4.199997191390455694e-05 3.980000035410597770e-04 3.649999993706131937e-04 1.163000212496140230e-03 -2.737999911061105105e-03 9.819999963153317780e-04 -1.164999787573963407e-03 -2.737000087127345986e-03 9.830000091645564163e-04 -7.700000863989167350e-05 9.299999388579671027e-05 -2.909999996678666709e-04 7.699999136562774504e-05 9.300000553385525878e-05 -2.900000005179244095e-04 1.349999779330182692e-04 2.320000093920039403e-04 -8.190000009769197835e-04 -1.000032989951336669e-06 3.999999994289256899e-04 -4.960000003940307498e-04 -1.340000220725008140e-04 2.319999890464657520e-04 -8.199999994920786949e-04 -3.179477906552580388e-11 3.849999995155435378e-04 -4.850000003845674574e-04 1.194000218221465820e-03 -2.820999908816455067e-03 8.819999962271231038e-04 6.599999260660662599e-05 7.900000473488541248e-05 -2.570000004432216982e-04 -6.800000739339299907e-05 7.899999460043088473e-05 -2.569999997035610868e-04 -1.194999781616227011e-03 -2.823000089495142622e-03 8.840000094160556290e-04 5.398134931977253752e-09 -6.707499994114497766e-02 5.892100006699964310e-02 -4.590999683948883761e-03 -2.770000327936185044e-03 1.930400002810854498e-02 1.631384202663691248e-10 -6.939999799765117711e-04 2.004600000069322110e-02 4.591000315905348350e-03 -2.767999633498160767e-03 1.930499997742323240e-02 7.200003592101083183e-04 -3.215999924557804215e-03 2.101199999923809153e-02 -7.209996407252969829e-04 -3.217000033543002818e-03 2.101000000719320179e-02 -1.559999200796608517e-04 4.680000090692156391e-04 2.089100000039362248e-02 1.570000799368977801e-04 4.680000327444828979e-04 2.089399999866590682e-02 7.230001209666404687e-04 -8.099992453768972082e-05 2.080499999609005529e-02 -9.998399594544017782e-07 -6.779999803937580231e-04 1.970400000068275870e-02 -7.219998791145054457e-04 -8.000003382441088940e-05 2.080400000406524424e-02 2.657014529967279347e-10 -2.131999981097247587e-03 1.892400000212960537e-02 -8.620999944012990024e-03 1.181999374299965138e-03 2.633800004640600087e-02 -9.299989525382300099e-05 1.650000141795341464e-04 2.123700000034852917e-02 9.300010467054619420e-05 1.660000282467620763e-04 2.123699999932083735e-02 8.620000056068111149e-03 1.181000678242236004e-03 2.633899995123917259e-02 9.147999805623785105e-03 1.541000677781428256e-03 -1.410000005203490558e-02 9.999882764697256679e-06 1.579999817037242287e-04 -1.907400000021302125e-02 -1.100011738104334118e-05 1.599999801164877231e-04 -1.907300000009910096e-02 -9.149000194376161882e-03 1.540999293974604353e-03 -1.409999995103811132e-02 -1.999955117973305699e-06 -2.154000021509240234e-03 -2.138199999783738092e-02 -7.380000953243580483e-04 -1.620000752822414671e-04 -1.948899999576452977e-02 9.999346336251267319e-07 -6.400000205122195794e-04 -2.061099999936624044e-02 7.369999046110471035e-04 -1.609999637256137107e-04 -1.948700000390731629e-02 1.509998541248035132e-04 5.079999919750309524e-04 -1.946700000134092903e-02 -1.530001458696757732e-04 5.079999689844315108e-04 -1.946599999966289185e-02 -7.049998633073697009e-04 -3.220000072652585109e-03 -1.935499999289212042e-02 7.050001369195169629e-04 -3.222999966013921462e-03 -1.935500000067211929e-02 4.628000092327395031e-03 -2.758999671035489588e-03 -2.107600002278999310e-02 -1.000059486740229674e-06 -6.930000203248607576e-04 -2.027199999930225788e-02 -4.626999907742688871e-03 -2.758000370992524496e-03 -2.107499997170472761e-02 -9.944363250163366312e-07 -7.198299997843576881e-02 2.166400007190764573e-02
-4.013553571928038334e-06 1.710859998885339572e-01 -1.112880001708717037e-01 -4.200002762127393843e-05 3.919999971901158803e-04 3.669999998402743361e-04 5.000018314385906232e-06 -2.750000000713425253e-04 -4.499999997529082526e-04 4.199997268676669825e-05 3.880000035440564314e-04 3.679999993806020212e-04 1.161000211717758265e-03 -2.727999911216361095e-03 9.779999963163827064e-04 -1.160999788276715402e-03 -2.728000086828820565e-03 9.790000091334872048e-04 -7.700000856978126567e-05 9.199999388479783761e-05 -2.919999996668677655e-04 7.799999133802845437e-05 9.300000560449113874e-05 -2.950000005234442585e-04 1.339999780897986495e-04 2.300000093173725640e-04 -8.180000009694022266e-04 1.999966934418396613e-06 4.009999996558164317e-04 -4.960000004115891871e-04 -1.350000220079102800e-04 2.309999889688377737e-04 -8.219999994855599779e-04 -2.000031962599140728e-06 3.869999993612863913e-04 -4.880000003755255011e-04 1.192000217756644448e-03 -2.814999908969712753e-03 8.799999962321695826e-04 6.699999251441680404e-05 8.000000480751905411e-05 -2.600000004497404283e-04 -6.700000747454312212e-05 7.999999467506227729e-05 -2.579999997100797682e-04 -1.192999782021977699e-03 -2.818000089348876580e-03 8.790000094000214583e-04 5.385567127463714398e-09 -6.691699994125685502e-02 5.880900006684181697e-02 -4.579999684561094839e-03 -2.763000327119235610e-03 1.928900002804083413e-02 1.000162926441338421e-06 -6.919999799118692037e-04 2.003500000068570222e-02 4.580000315427839967e-03 -2.762999634348073559e-03 1.928699997747895453e-02 7.190003585112286462e-04 -3.207999924650415269e-03 2.099499999923561816e-02 -7.169996416455475235e-04 -3.206000033256464071e-03 2.099400000716013237e-02 -1.549999204594598571e-04 4.720000091308616287e-04 2.087700000038410914e-02 1.540000798320205813e-04 4.680000324986134923e-04 2.087499999868246831e-02 7.220001208192520495e-04 -7.999992462630537544e-05 2.079199999609457686e-02 1.000159688345863097e-06 -6.739999802514873989e-04 1.969500000066772352e-02 -7.189998791106333616e-04 -8.100003361050550936e-05 2.079100000404968465e-02 -1.999734861077933203e-06 -2.124999981254501510e-03 1.891800000213365168e-02 -8.622999944068189190e-03 1.181999374138715869e-03 2.632800004641704106e-02 -8.999989511524993709e-05 1.620000143904429463e-04 2.122100000033496844e-02 9.100010496037981371e-05 1.610000280795195683e-04 2.122099999933687448e-02 8.620000056077502942e-03 1.180000678230249365e-03 2.632699995124017020e-02 9.145999805641992497e-03 1.542000677647148432e-03 -1.408300005202486535e-02 9.999882971156328319e-06 1.559999817137130160e-04 -1.906400000021102326e-02 -1.200011688310295181e-05 1.539999800488484592e-04 -1.906500000008758827e-02 -9.145000194282324954e-03 1.540999294294106156e-03 -1.408299995106018949e-02 4.452208268451577549e-11 -2.148000021340999016e-03 -2.136499999785441278e-02 -7.350000952746792897e-04 -1.620000750463608161e-04 -1.947999999578108737e-02 -1.000065311176313315e-06 -6.400000206534913394e-04 -2.060099999935520107e-02 7.349999046496860687e-04 -1.609999638698820970e-04 -1.948000000389627645e-02 1.479998539420715725e-04 5.109999917561311488e-04 -1.945900000132736590e-02 -1.490001461445975256e-04 5.119999692919469060e-04 -1.946099999968896668e-02 -7.049998641061834071e-04 -3.209000072646591480e-03 -1.934899999290310910e-02 7.040001359915220615e-04 -3.209999966079562974e-03 -1.934500000067958594e-02 4.619000092096632246e-03 -2.754999671703175883e-03 -2.106300002274430483e-02 -5.957176248301750425e-11 -6.910000202372439462e-04 -2.025999999930977805e-02 -4.617999907919900955e-03 -2.755000370302862663e-03 -2.106599997175740563e-02 -9.944507007794601122e-07 -7.179999997853264704e-02 2.156700007172485112e-02
-8.013510571595330260e-06 1.705369998884991301e-01 -1.110200001703012390e-01 -4.400002754012381935e-05 3.909999970398542711e-04 3.679999998523129619e-04 1.000001838062415671e-05 -2.749999996812047334e-04 -4.379999997805075198e-04 3.799997214079534671e-05 3.950000032385387293e-04 3.649999993956892720e-04 1.152000210264223813e-03 -2.708999911900030443e-03 9.749999963470827938e-04 -1.155999788503606161e-03 -2.725000086450669531e-03 9.790000091028914532e-04 -7.500000859186068260e-05 9.199999403206285029e-05 -2.959999996779074803e-04 7.599999146333742998e-05 9.200000546222053327e-05 -2.860000005114056551e-04 1.419999780196882328e-04 2.310000099234134948e-04 -8.170000010145599817e-04 -3.000032054788962582e-06 3.879999992826595320e-04 -4.910000003710045594e-04 -1.360000217479003816e-04 2.279999888992007776e-04 -8.159999994770435324e-04 4.999969420824898300e-06 3.689999998946937986e-04 -4.840000003961847136e-04 1.188000216319669679e-03 -2.795999909272233862e-03 8.799999962352704009e-04 6.799999345509901219e-05 6.800000488914258417e-05 -2.540000004432737754e-04 -6.600000732880245983e-05 7.799999474969366469e-05 -2.589999997136019317e-04 -1.182999783405401647e-03 -2.800000088596569289e-03 8.750000093268431355e-04 1.005369725142446712e-06 -6.671599994129709388e-02 5.869300006663552560e-02 -4.576999685512816649e-03 -2.751000326900335767e-03 1.928100002801228646e-02 2.000162286632423722e-06 -6.849999798562165024e-04 2.001500000067319221e-02 4.570000314000257496e-03 -2.744999635116362850e-03 1.927499997751617664e-02 7.170003580557993920e-04 -3.202999924815660027e-03 2.098099999924166528e-02 -7.169996417669843468e-04 -3.206000033278439548e-03 2.097200000716013465e-02 -1.519999199592950959e-04 4.640000093387737349e-04 2.085800000037554142e-02 1.570000799650737551e-04 4.650000327085233626e-04 2.085799999866890658e-02 7.170001212382667941e-04 -8.699992502443417851e-05 2.077199999612916459e-02 -9.998403298614151570e-07 -6.749999804197288206e-04 1.967800000067976285e-02 -7.229998788870380111e-04 -8.600003394099507801e-05 2.076300000407675997e-02 -9.997354953669923180e-07 -2.117999981197849716e-03 1.889900000212113920e-02 -8.620999944966357617e-03 1.192999374277989820e-03 2.631600004639501195e-02 -9.499989524772644526e-05 1.620000139883185676e-04 2.119700000036256818e-02 9.500010406056099527e-05 1.710000283560697532e-04 2.119499999930480466e-02 8.620000054876812354e-03 1.195000678218262899e-03 2.631499995122519100e-02 9.134999805202546549e-03 1.550000676845182061e-03 -1.405300005197213792e-02 1.199988275695297792e-05 1.599999818809555538e-04 -1.904800000022605772e-02 -1.200011750692899722e-05 1.639999800728214965e-04 -1.904100000009757709e-02 -9.135000195188241329e-03 1.553999295064392976e-03 -1.406899995112837441e-02 -4.999955919011419128e-06 -2.141000021703168017e-03 -2.134899999783380561e-02 -7.350000950996916612e-04 -1.630000750283810279e-04 -1.946199999578009099e-02 4.999934550250583210e-06 -6.370000201837277155e-04 -2.058499999939131242e-02 7.259999051216749428e-04 -1.659999645335734613e-04 -1.946300000384160178e-02 1.479998550135825893e-04 4.979999917721131654e-04 -1.944300000131437764e-02 -1.590001456670888129e-04 5.069999685536240785e-04 -1.944299999962877112e-02 -6.959998638003669436e-04 -3.211000071937950267e-03 -1.932099999295078946e-02 7.060001365391412433e-04 -3.215999965911321614e-03 -1.932800000068463434e-02 4.599000091932107549e-03 -2.750999673190809153e-03 -2.103800002263790658e-02 -3.000059271465863079e-06 -6.930000204371650208e-04 -2.023299999929122073e-02 -4.606999908505088510e-03 -2.745000369439964342e-03 -2.103499997182811318e-02 4.005530972476719599e-06 -7.156599997826837423e-02 2.145300007146351551e-02
