9.308642540060960258e+00 -1.612503488813004186e-17 0.000000000000000000e+00 2.599883819077784541e-01 1.611884905984127059e+01 0.000000000000000000e+00 0.000000000000000000e+00 0.000000000000000000e+00 2.165142893000000157e+01
9.308642540060960258e+00 -1.612503488813004186e-17 0.000000000000000000e+00 2.599883819077784541e-01 1.611884905984127059e+01 0.000000000000000000e+00 0.000000000000000000e+00 0.000000000000000000e+00 2.165142893000000157e+01
9.308642540060960258e+00 -1.612503488813004186e-17 0.000000000000000000e+00 2.599883819077784541e-01 1.611884905984127059e+01 0.000000000000000000e+00 0.000000000000000000e+00 0.000000000000000000e+00 2.165142893000000157e+01
9.308642540060960258e+00 -1.612503488813004186e-17 0.000000000000000000e+00 2.599883819077784541e-01 1.611884905984127059e+01 0.000000000000000000e+00 0.000000000000000000e+00 0.000000000000000000e+00 2.165142893000000157e+01
9.308642540060960258e+00 -1.612503488813004186e-17 0.000000000000000000e+00 2.599883819077784541e-01 1.611884905984127059e+01 0.000000000000000000e+00 0.000000000000000000e+00 0.000000000000000000e+00 2.165142893000000157e+01
