9.566904888673539276e+00 1.611798724412804518e+01 4.874399999999999622e+00 1.593048958123511660e+00 2.685607592412114553e+00 4.874399999999999622e+00 5.974828858223166228e-02 3.582762371580271665e+00 2.314499999999999780e+00 1.567858560367753951e+00 8.962811373567756146e-01 2.314499999999999780e+00 3.361147843083232889e+00 1.611798975616490992e+01 4.874399999999999622e+00 4.695932480268392162e+00 2.685606255756856520e+00 4.874399999999999622e+00 3.162631810727112303e+00 3.582761034925013632e+00 2.314499999999999780e+00 4.670742082512634674e+00 8.962798007015172486e-01 2.314499999999999780e+00 6.464021366528657886e+00 1.611798858078330454e+01 4.874399999999999622e+00 7.798806164987471590e+00 2.685615079074708422e+00 4.874399999999999622e+00 6.265515332871993692e+00 3.582759698269754711e+00 2.314499999999999780e+00 7.773625604657516064e+00 8.962784640462588825e-01 2.314499999999999780e+00 9.393579254073177509e+00 5.372084977943489825e+00 4.874399999999999622e+00 1.679711775423693210e+00 8.058558725504392228e+00 4.874399999999999622e+00 1.464111058824131562e-01 8.955713504672550229e+00 2.314499999999999780e+00 1.654521377667935500e+00 6.269232270449053068e+00 2.314499999999999780e+00 3.187822208482869790e+00 5.372087489980351904e+00 4.874399999999999622e+00 4.782595297568573933e+00 8.058557388849132863e+00 4.874399999999999622e+00 3.249294628027293630e+00 8.955712168017290864e+00 2.314499999999999780e+00 4.757404899812816446e+00 6.269230933793794591e+00 2.314499999999999780e+00 6.290695731928295231e+00 5.372086314598748302e+00 4.874399999999999622e+00 7.885468821013998486e+00 8.058556213467531038e+00 4.874399999999999622e+00 6.352178150172174576e+00 8.955710831362033275e+00 2.314499999999999780e+00 7.860288421957697835e+00 6.269229597138537002e+00 2.314499999999999780e+00 9.480242071373357504e+00 1.074503611103576795e+01 4.874399999999999622e+00 1.766374592723874537e+00 1.343150985859666946e+01 4.874399999999999622e+00 2.330737619089402191e-01 1.432865463906537151e+01 2.314499999999999780e+00 1.741184033694462618e+00 1.164217340484187524e+01 2.314499999999999780e+00 3.274485025783051562e+00 1.074503862307263091e+01 4.874399999999999622e+00 4.869258114868755705e+00 1.343150852194141187e+01 4.874399999999999622e+00 3.335957284053820526e+00 1.432865330241011392e+01 2.314499999999999780e+00 4.844067717112998217e+00 1.164218206688607360e+01 2.314499999999999780e+00 6.377358549228476114e+00 1.074503744769102553e+01 4.874399999999999622e+00 7.972131638314180258e+00 1.343150734655980827e+01 4.874399999999999622e+00 6.438840967472356347e+00 1.432866196445431051e+01 2.314499999999999780e+00 7.946951239257878719e+00 1.164218073023081423e+01 2.314499999999999780e+00 9.566904888673539276e+00 1.611798724412804518e+01 1.209154999999999980e+01 1.593048958123511660e+00 2.685607592412114553e+00 1.209154999999999980e+01 5.974828858223166228e-02 3.582762371580271665e+00 9.531650000000000844e+00 1.567858560367753951e+00 8.962811373567756146e-01 9.531650000000000844e+00 3.361147843083232889e+00 1.611798975616490992e+01 1.209154999999999980e+01 4.695932480268392162e+00 2.685606255756856520e+00 1.209154999999999980e+01 3.162631810727112303e+00 3.582761034925013632e+00 9.531650000000000844e+00 4.670742082512634674e+00 8.962798007015172486e-01 9.531650000000000844e+00 6.464021366528657886e+00 1.611798858078330454e+01 1.209154999999999980e+01 7.798806164987471590e+00 2.685615079074708422e+00 1.209154999999999980e+01 6.265515332871993692e+00 3.582759698269754711e+00 9.531650000000000844e+00 7.773625604657516064e+00 8.962784640462588825e-01 9.531650000000000844e+00 9.393579254073177509e+00 5.372084977943489825e+00 1.209154999999999980e+01 1.679711775423693210e+00 8.058558725504392228e+00 1.209154999999999980e+01 1.464111058824131562e-01 8.955713504672550229e+00 9.531650000000000844e+00 1.654521377667935500e+00 6.269232270449053068e+00 9.531650000000000844e+00 3.187822208482869790e+00 5.372087489980351904e+00 1.209154999999999980e+01 4.782595297568573933e+00 8.058557388849132863e+00 1.209154999999999980e+01 3.249294628027293630e+00 8.955712168017290864e+00 9.531650000000000844e+00 4.757404899812816446e+00 6.269230933793794591e+00 9.531650000000000844e+00 6.290695731928295231e+00 5.372086314598748302e+00 1.209154999999999980e+01 7.885468821013998486e+00 8.058556213467531038e+00 1.209154999999999980e+01 6.352178150172174576e+00 8.955710831362033275e+00 9.531650000000000844e+00 7.860288421957697835e+00 6.269229597138537002e+00 9.531650000000000844e+00 9.480242071373357504e+00 1.074503611103576795e+01 1.209154999999999980e+01 1.766374592723874537e+00 1.343150985859666946e+01 1.209154999999999980e+01 2.330737619089402191e-01 1.432865463906537151e+01 9.531650000000000844e+00 1.741184033694462618e+00 1.164217340484187524e+01 9.531650000000000844e+00 3.274485025783051562e+00 1.074503862307263091e+01 1.209154999999999980e+01 4.869258114868755705e+00 1.343150852194141187e+01 1.209154999999999980e+01 3.335957284053820526e+00 1.432865330241011392e+01 9.531650000000000844e+00 4.844067717112998217e+00 1.164218206688607360e+01 9.531650000000000844e+00 6.377358549228476114e+00 1.074503744769102553e+01 1.209154999999999980e+01 7.972131638314180258e+00 1.343150734655980827e+01 1.209154999999999980e+01 6.438840967472356347e+00 1.432866196445431051e+01 9.531650000000000844e+00 7.946951239257878719e+00 1.164218073023081423e+01 9.531650000000000844e+00 9.566904888673539276e+00 1.611798724412804518e+01 1.930868999999999858e+01 1.593048958123511660e+00 2.685607592412114553e+00 1.930868999999999858e+01 5.974828858223166228e-02 3.582762371580271665e+00 1.674878999999999962e+01 1.567858560367753951e+00 8.962811373567756146e-01 1.674878999999999962e+01 3.361147843083232889e+00 1.611798975616490992e+01 1.930868999999999858e+01 4.695932480268392162e+00 2.685606255756856520e+00 1.930868999999999858e+01 3.162631810727112303e+00 3.582761034925013632e+00 1.674878999999999962e+01 4.670742082512634674e+00 8.962798007015172486e-01 1.674878999999999962e+01 6.464021366528657886e+00 1.611798858078330454e+01 1.930868999999999858e+01 7.798806164987471590e+00 2.685615079074708422e+00 1.930868999999999858e+01 6.265515332871993692e+00 3.582759698269754711e+00 1.674878999999999962e+01 7.773625604657516064e+00 8.962784640462588825e-01 1.674878999999999962e+01 9.393579254073177509e+00 5.372084977943489825e+00 1.930868999999999858e+01 1.679711775423693210e+00 8.058558725504392228e+00 1.930868999999999858e+01 1.464111058824131562e-01 8.955713504672550229e+00 1.674878999999999962e+01 1.654521377667935500e+00 6.269232270449053068e+00 1.674878999999999962e+01 3.187822208482869790e+00 5.372087489980351904e+00 1.930868999999999858e+01 4.782595297568573933e+00 8.058557388849132863e+00 1.930868999999999858e+01 3.249294628027293630e+00 8.955712168017290864e+00 1.674878999999999962e+01 4.757404899812816446e+00 6.269230933793794591e+00 1.674878999999999962e+01 6.290695731928295231e+00 5.372086314598748302e+00 1.930868999999999858e+01 7.885468821013998486e+00 8.058556213467531038e+00 1.930868999999999858e+01 6.352178150172174576e+00 8.955710831362033275e+00 1.674878999999999962e+01 7.860288421957697835e+00 6.269229597138537002e+00 1.674878999999999962e+01 9.480242071373357504e+00 1.074503611103576795e+01 1.930868999999999858e+01 1.766374592723874537e+00 1.343150985859666946e+01 1.930868999999999858e+01 2.330737619089402191e-01 1.432865463906537151e+01 1.674878999999999962e+01 1.741184033694462618e+00 1.164217340484187524e+01 1.674878999999999962e+01 3.274485025783051562e+00 1.074503862307263091e+01 1.930868999999999858e+01 4.869258114868755705e+00 1.343150852194141187e+01 1.930868999999999858e+01 3.335957284053820526e+00 1.432865330241011392e+01 1.674878999999999962e+01 4.844067717112998217e+00 1.164218206688607360e+01 1.674878999999999962e+01 6.377358549228476114e+00 1.074503744769102553e+01 1.930868999999999858e+01 7.972131638314180258e+00 1.343150734655980827e+01 1.930868999999999858e+01 6.438840967472356347e+00 1.432866196445431051e+01 1.674878999999999962e+01 7.946951239257878719e+00 1.164218073023081423e+01 1.674878999999999962e+01 2.902715749603063111e-02 1.790954790001048735e+00 3.594460000000000210e+00 9.358862997860420307e+00 3.581231951351254494e+00 5.925119999999999720e+00 1.602564172786435037e+00 2.687094330424842248e+00 1.263800000000000034e+00 7.801243673841244328e-03 6.342689818618105040e-04 1.263789999999999969e+00 1.623800246581734497e+00 4.477424688869830582e+00 3.594450000000000145e+00 1.558332701910757345e+00 8.947545658198792218e-01 5.925110000000000099e+00 3.131910679640911077e+00 1.790953453345790258e+00 3.594460000000000210e+00 3.153105952270115697e+00 3.581234463388116573e+00 5.925119999999999720e+00 4.705447694931316427e+00 2.687092993769583771e+00 1.263800000000000034e+00 3.110684765818722219e+00 6.329323266033817135e-04 1.263789999999999969e+00 4.726683768726615220e+00 4.477423352214572105e+00 3.594450000000000145e+00 4.661206225356181676e+00 8.947533904382751757e-01 5.925110000000000099e+00 6.234794201785792467e+00 1.790952116690531781e+00 3.594460000000000210e+00 6.255989474414996643e+00 3.581233126732858540e+00 5.925119999999999720e+00 7.808331217076196040e+00 2.687091657114325294e+00 1.263800000000000034e+00 6.213558289264147660e+00 6.317569449993487660e-04 1.263789999999999969e+00 7.829557292172039773e+00 4.477422176832968503e+00 3.594450000000000145e+00 7.764089747501063066e+00 8.947520537830168097e-01 5.925110000000000099e+00 1.156899747962121111e-01 7.163905923093326855e+00 3.594460000000000210e+00 9.445525815160602079e+00 8.954183084443531726e+00 5.925119999999999720e+00 1.689226990086616587e+00 8.060045463517120368e+00 1.263800000000000034e+00 9.446389970036830896e-02 5.373575403374683646e+00 1.263789999999999969e+00 1.710463063881916046e+00 9.850375821962108702e+00 3.594450000000000145e+00 1.644995357937284464e+00 6.267695700212700949e+00 5.925110000000000099e+00 3.218573496941092849e+00 7.163904586438068378e+00 3.594460000000000210e+00 3.239768769570297025e+00 8.954185596480394693e+00 5.925119999999999720e+00 4.792110512231497310e+00 8.060044126861861002e+00 1.263800000000000034e+00 3.197347583118903547e+00 5.373584065418881117e+00 1.263789999999999969e+00 4.813346586026796992e+00 9.850374485306849337e+00 3.594450000000000145e+00 4.747869042656363447e+00 6.267704523530553296e+00 5.925110000000000099e+00 6.321457019085973350e+00 7.163903249782809901e+00 3.594460000000000210e+00 6.342652291715178414e+00 8.954184259825137104e+00 5.925119999999999720e+00 7.894994034376377812e+00 8.060042790206603414e+00 1.263800000000000034e+00 6.300221106564329432e+00 5.373582890037277515e+00 1.263789999999999969e+00 7.916220109472221544e+00 9.850373309925245735e+00 3.594450000000000145e+00 7.850752564801243949e+00 6.267703186875294818e+00 5.925110000000000099e+00 2.023526308227391879e-01 1.253684705748614903e+01 3.594460000000000210e+00 9.532188632460783850e+00 1.432713421753580896e+01 5.925119999999999720e+00 1.775889646113143705e+00 1.343298659790994165e+01 1.263800000000000034e+00 1.811267170005497751e-01 1.074652653646696088e+01 1.263789999999999969e+00 1.797125881182097373e+00 1.522332695505438593e+01 3.594450000000000145e+00 1.731658175237466013e+00 1.164064683330497907e+01 5.925110000000000099e+00 3.305236314241274176e+00 1.253685571953034561e+01 3.594460000000000210e+00 3.326431425596824365e+00 1.432712673087321598e+01 5.925119999999999720e+00 4.878773329531679082e+00 1.343299525995414001e+01 1.263800000000000034e+00 3.284010239145430887e+00 1.074652519981170329e+01 1.263789999999999969e+00 4.900009403326977875e+00 1.522332561839912657e+01 3.594450000000000145e+00 4.834531698682890344e+00 1.164064565792337547e+01 5.925110000000000099e+00 6.408119836386155121e+00 1.253685438287508802e+01 3.594460000000000210e+00 6.429315109015360186e+00 1.432713539291741434e+01 5.925119999999999720e+00 7.981656851676559583e+00 1.343299392329888065e+01 1.263800000000000034e+00 6.386883923864510315e+00 1.074653402312955564e+01 1.263789999999999969e+00 8.002882926772402428e+00 1.522332444301752474e+01 3.594450000000000145e+00 7.937415220827770845e+00 1.164064432126811610e+01 5.925110000000000099e+00 2.902715749603063111e-02 1.790954790001048735e+00 1.081160000000000032e+01 9.358862997860420307e+00 3.581231951351254494e+00 1.314226000000000028e+01 1.602564172786435037e+00 2.687094330424842248e+00 8.480940000000000367e+00 7.801243673841244328e-03 6.342689818618105040e-04 8.480930000000000746e+00 1.623800246581734497e+00 4.477424688869830582e+00 1.081160000000000032e+01 1.558332701910757345e+00 8.947545658198792218e-01 1.314225000000000065e+01 3.131910679640911077e+00 1.790953453345790258e+00 1.081160000000000032e+01 3.153105952270115697e+00 3.581234463388116573e+00 1.314226000000000028e+01 4.705447694931316427e+00 2.687092993769583771e+00 8.480940000000000367e+00 3.110684765818722219e+00 6.329323266033817135e-04 8.480930000000000746e+00 4.726683768726615220e+00 4.477423352214572105e+00 1.081160000000000032e+01 4.661206225356181676e+00 8.947533904382751757e-01 1.314225000000000065e+01 6.234794201785792467e+00 1.790952116690531781e+00 1.081160000000000032e+01 6.255989474414996643e+00 3.581233126732858540e+00 1.314226000000000028e+01 7.808331217076196040e+00 2.687091657114325294e+00 8.480940000000000367e+00 6.213558289264147660e+00 6.317569449993487660e-04 8.480930000000000746e+00 7.829557292172039773e+00 4.477422176832968503e+00 1.081160000000000032e+01 7.764089747501063066e+00 8.947520537830168097e-01 1.314225000000000065e+01 1.156899747962121111e-01 7.163905923093326855e+00 1.081160000000000032e+01 9.445525815160602079e+00 8.954183084443531726e+00 1.314226000000000028e+01 1.689226990086616587e+00 8.060045463517120368e+00 8.480940000000000367e+00 9.446389970036830896e-02 5.373575403374683646e+00 8.480930000000000746e+00 1.710463063881916046e+00 9.850375821962108702e+00 1.081160000000000032e+01 1.644995357937284464e+00 6.267695700212700949e+00 1.314225000000000065e+01 3.218573496941092849e+00 7.163904586438068378e+00 1.081160000000000032e+01 3.239768769570297025e+00 8.954185596480394693e+00 1.314226000000000028e+01 4.792110512231497310e+00 8.060044126861861002e+00 8.480940000000000367e+00 3.197347583118903547e+00 5.373584065418881117e+00 8.480930000000000746e+00 4.813346586026796992e+00 9.850374485306849337e+00 1.081160000000000032e+01 4.747869042656363447e+00 6.267704523530553296e+00 1.314225000000000065e+01 6.321457019085973350e+00 7.163903249782809901e+00 1.081160000000000032e+01 6.342652291715178414e+00 8.954184259825137104e+00 1.314226000000000028e+01 7.894994034376377812e+00 8.060042790206603414e+00 8.480940000000000367e+00 6.300221106564329432e+00 5.373582890037277515e+00 8.480930000000000746e+00 7.916220109472221544e+00 9.850373309925245735e+00 1.081160000000000032e+01 7.850752564801243949e+00 6.267703186875294818e+00 1.314225000000000065e+01 2.023526308227391879e-01 1.253684705748614903e+01 1.081160000000000032e+01 9.532188632460783850e+00 1.432713421753580896e+01 1.314226000000000028e+01 1.775889646113143705e+00 1.343298659790994165e+01 8.480940000000000367e+00 1.811267170005497751e-01 1.074652653646696088e+01 8.480930000000000746e+00 1.797125881182097373e+00 1.522332695505438593e+01 1.081160000000000032e+01 1.731658175237466013e+00 1.164064683330497907e+01 1.314225000000000065e+01 3.305236314241274176e+00 1.253685571953034561e+01 1.081160000000000032e+01 3.326431425596824365e+00 1.432712673087321598e+01 1.314226000000000028e+01 4.878773329531679082e+00 1.343299525995414001e+01 8.480940000000000367e+00 3.284010239145430887e+00 1.074652519981170329e+01 8.480930000000000746e+00 4.900009403326977875e+00 1.522332561839912657e+01 1.081160000000000032e+01 4.834531698682890344e+00 1.164064565792337547e+01 1.314225000000000065e+01 6.408119836386155121e+00 1.253685438287508802e+01 1.081160000000000032e+01 6.429315109015360186e+00 1.432713539291741434e+01 1.314226000000000028e+01 7.981656851676559583e+00 1.343299392329888065e+01 8.480940000000000367e+00 6.386883923864510315e+00 1.074653402312955564e+01 8.480930000000000746e+00 8.002882926772402428e+00 1.522332444301752474e+01 1.081160000000000032e+01 7.937415220827770845e+00 1.164064432126811610e+01 1.314225000000000065e+01 2.902715749603063111e-02 1.790954790001048735e+00 1.802873999999999910e+01 9.358862997860420307e+00 3.581231951351254494e+00 2.035940000000000083e+01 1.602564172786435037e+00 2.687094330424842248e+00 1.569807999999999915e+01 7.801243673841244328e-03 6.342689818618105040e-04 1.569806999999999952e+01 1.623800246581734497e+00 4.477424688869830582e+00 1.802873999999999910e+01 1.558332701910757345e+00 8.947545658198792218e-01 2.035939000000000121e+01 3.131910679640911077e+00 1.790953453345790258e+00 1.802873999999999910e+01 3.153105952270115697e+00 3.581234463388116573e+00 2.035940000000000083e+01 4.705447694931316427e+00 2.687092993769583771e+00 1.569807999999999915e+01 3.110684765818722219e+00 6.329323266033817135e-04 1.569806999999999952e+01 4.726683768726615220e+00 4.477423352214572105e+00 1.802873999999999910e+01 4.661206225356181676e+00 8.947533904382751757e-01 2.035939000000000121e+01 6.234794201785792467e+00 1.790952116690531781e+00 1.802873999999999910e+01 6.255989474414996643e+00 3.581233126732858540e+00 2.035940000000000083e+01 7.808331217076196040e+00 2.687091657114325294e+00 1.569807999999999915e+01 6.213558289264147660e+00 6.317569449993487660e-04 1.569806999999999952e+01 7.829557292172039773e+00 4.477422176832968503e+00 1.802873999999999910e+01 7.764089747501063066e+00 8.947520537830168097e-01 2.035939000000000121e+01 1.156899747962121111e-01 7.163905923093326855e+00 1.802873999999999910e+01 9.445525815160602079e+00 8.954183084443531726e+00 2.035940000000000083e+01 1.689226990086616587e+00 8.060045463517120368e+00 1.569807999999999915e+01 9.446389970036830896e-02 5.373575403374683646e+00 1.569806999999999952e+01 1.710463063881916046e+00 9.850375821962108702e+00 1.802873999999999910e+01 1.644995357937284464e+00 6.267695700212700949e+00 2.035939000000000121e+01 3.218573496941092849e+00 7.163904586438068378e+00 1.802873999999999910e+01 3.239768769570297025e+00 8.954185596480394693e+00 2.035940000000000083e+01 4.792110512231497310e+00 8.060044126861861002e+00 1.569807999999999915e+01 3.197347583118903547e+00 5.373584065418881117e+00 1.569806999999999952e+01 4.813346586026796992e+00 9.850374485306849337e+00 1.802873999999999910e+01 4.747869042656363447e+00 6.267704523530553296e+00 2.035939000000000121e+01 6.321457019085973350e+00 7.163903249782809901e+00 1.802873999999999910e+01 6.342652291715178414e+00 8.954184259825137104e+00 2.035940000000000083e+01 7.894994034376377812e+00 8.060042790206603414e+00 1.569807999999999915e+01 6.300221106564329432e+00 5.373582890037277515e+00 1.569806999999999952e+01 7.916220109472221544e+00 9.850373309925245735e+00 1.802873999999999910e+01 7.850752564801243949e+00 6.267703186875294818e+00 2.035939000000000121e+01 2.023526308227391879e-01 1.253684705748614903e+01 1.802873999999999910e+01 9.532188632460783850e+00 1.432713421753580896e+01 2.035940000000000083e+01 1.775889646113143705e+00 1.343298659790994165e+01 1.569807999999999915e+01 1.811267170005497751e-01 1.074652653646696088e+01 1.569806999999999952e+01 1.797125881182097373e+00 1.522332695505438593e+01 1.802873999999999910e+01 1.731658175237466013e+00 1.164064683330497907e+01 2.035939000000000121e+01 3.305236314241274176e+00 1.253685571953034561e+01 1.802873999999999910e+01 3.326431425596824365e+00 1.432712673087321598e+01 2.035940000000000083e+01 4.878773329531679082e+00 1.343299525995414001e+01 1.569807999999999915e+01 3.284010239145430887e+00 1.074652519981170329e+01 1.569806999999999952e+01 4.900009403326977875e+00 1.522332561839912657e+01 1.802873999999999910e+01 4.834531698682890344e+00 1.164064565792337547e+01 2.035939000000000121e+01 6.408119836386155121e+00 1.253685438287508802e+01 1.802873999999999910e+01 6.429315109015360186e+00 1.432713539291741434e+01 2.035940000000000083e+01 7.981656851676559583e+00 1.343299392329888065e+01 1.569807999999999915e+01 6.386883923864510315e+00 1.074653402312955564e+01 1.569806999999999952e+01 8.002882926772402428e+00 1.522332444301752474e+01 1.802873999999999910e+01 7.937415220827770845e+00 1.164064432126811610e+01 2.035939000000000121e+01