-2.825386609210000188e+03
-2.825350713220000216e+03
-2.825243903420000152e+03
-2.825066947410000012e+03
-2.824821017740000116e+03
