-6.021327727201884576e-03 4.678716640450649410e-03 2.670000000000000064e-03 -6.029858809690897582e-03 4.831874143144986207e-03 1.606999999999999922e-03 5.950175340158385222e-03 -5.493675128852366224e-03 -1.930000000000000075e-03 5.496637916251424089e-03 -4.655251724410530700e-03 -9.210000000000000521e-04 -5.545535019798062369e-03 4.103968609065295099e-03 1.123999999999999999e-03 -5.644086545273654769e-03 4.504610090724938017e-03 1.180000000000000059e-03 5.551517631294886762e-03 -5.221210395054199857e-03 -1.369999999999999907e-03 5.755862029599340818e-03 -5.201503368855641025e-03 -2.086999999999999880e-03 -6.352429665209036874e-03 5.047104352851466968e-03 9.030000000000000483e-04 -5.473366822425687790e-03 4.485854392105226816e-03 1.907999999999999974e-03 5.889554202882841573e-03 -5.469694350812034575e-03 -1.613999999999999983e-03 5.590464337346790977e-03 -4.852790588192914568e-03 -1.850000000000000082e-03 -6.187822080304400223e-03 4.959438264813602511e-03 1.394000000000000057e-03 -6.359557693616449056e-03 5.225242476819986007e-03 1.111000000000000008e-03 5.861509622580558278e-03 -5.100194010466224843e-03 -2.393999999999999861e-03 5.540309326007516327e-03 -5.420055495302068468e-03 -1.899999999999999996e-03 -5.861638908621439985e-03 4.472114410984503498e-03 1.704999999999999918e-03 -6.088641480729678826e-03 4.845823966998587945e-03 2.903999999999999897e-03 5.542551243497654059e-03 -4.785009060932134996e-03 -2.233000000000000176e-03 5.872185911790535687e-03 -4.500288170480727483e-03 -2.582000000000000094e-03 -6.322756194285510979e-03 4.840598941001437137e-03 1.994000000000000113e-03 -5.528504922568766231e-03 4.229710311727381128e-03 1.379000000000000017e-03 5.420163979423752582e-03 -4.684022143004588565e-03 -1.296000000000000060e-03 7.563078721062266307e-03 -4.892608839772008555e-03 -2.043000000000000111e-03 -5.567241625617376163e-03 4.680393646050855748e-03 1.018000000000000025e-03 -6.389360370445651763e-03 4.989692481163407294e-03 1.871000000000000050e-03 5.842157425133428193e-03 -4.811844409367199010e-03 -2.443999999999999992e-03 5.865863770843911945e-03 -5.388301701083640649e-03 -1.699999999999999905e-03 -5.575208357162910258e-03 4.620514340873846555e-03 1.753000000000000001e-03 -6.201804052041940199e-03 5.146688109850469824e-03 1.216000000000000067e-03 7.485669370327301293e-03 -5.041379779201693098e-03 -1.840000000000000056e-03 5.887860909646780612e-03 -5.388656503123335009e-03 -1.943000000000000066e-03 -5.961722426966952273e-03 5.025800503780398013e-03 1.500000000000000031e-03 -5.831594374734100361e-03 4.598646327841447203e-03 1.585000000000000037e-03 5.622846885123517803e-03 -5.635414617085133041e-03 -1.771999999999999921e-03 5.662390410543668290e-03 -4.981967366270390225e-03 -1.469999999999999953e-03 -6.042405579462899363e-03 4.798072093380387204e-03 3.137000000000000031e-03 -6.022730567589599897e-03 5.149800531110101595e-03 1.708000000000000100e-03 5.995266305325821013e-03 -5.364385512640278478e-03 -2.171999999999999886e-03 5.476172903877154184e-03 -4.497901213548567180e-03 -1.541999999999999968e-03 -5.599253804935419750e-03 4.183845339865738255e-03 1.557999999999999923e-03 -5.659100561552454084e-03 4.875900515211187801e-03 1.211000000000000054e-03 5.635313285185673121e-03 -4.986531277131416549e-03 -1.623000000000000094e-03 5.723834070168421981e-03 -4.892946713094188313e-03 -2.661000000000000171e-03 -6.301742664504108790e-03 5.151300456231289009e-03 1.379999999999999933e-03 -5.486606935352958056e-03 4.719098254638998818e-03 2.047000000000000208e-03 5.763683561432436479e-03 -5.274639021172303731e-03 -1.897000000000000032e-03 5.656084931197201404e-03 -4.628819747093633648e-03 -2.419999999999999842e-03 -6.085206351890818689e-03 5.058796265408171088e-03 1.159000000000000091e-03 -6.328771381054045485e-03 5.211744219198721599e-03 1.131999999999999977e-03 5.770714959205883697e-03 -5.148736044855810150e-03 -2.252000000000000095e-03 5.621717996254407129e-03 -5.643397449284371509e-03 -1.810999999999999893e-03 -5.806694416998856717e-03 4.530235860040216639e-03 1.494000000000000102e-03 -6.048888593387893170e-03 4.830180823197188257e-03 2.844999999999999873e-03 5.637329205865754950e-03 -4.861547533933304605e-03 -2.036000000000000049e-03 5.924130660017686012e-03 -4.752158659287213614e-03 -2.520999999999999804e-03 -6.464657036307891111e-03 4.971904504605343701e-03 1.711000000000000064e-03 -5.587739133128148683e-03 4.277671841096310906e-03 1.265000000000000065e-03 5.414035714114981759e-03 -4.753932402368327668e-03 -1.126999999999999964e-03 7.441594482606097606e-03 -4.983661460858525294e-03 -1.955999999999999839e-03 -5.623202221397927657e-03 4.373256198448181344e-03 1.270999999999999994e-03 -6.390537694834555298e-03 4.854693911144005933e-03 2.386000000000000100e-03 5.924614480980905200e-03 -4.722162560919666852e-03 -3.069999999999999812e-03 5.832997028139665432e-03 -5.503786666442828102e-03 -2.011000000000000201e-03 -5.485349214542472804e-03 4.301023598460986669e-03 1.994999999999999812e-03 -6.159438691769182454e-03 4.920975513283597225e-03 1.786999999999999960e-03 7.363749773139441519e-03 -4.973404696843889729e-03 -2.392000000000000029e-03 5.953690945554033706e-03 -5.647751864665084658e-03 -2.124000000000000020e-03 -5.991186455833636369e-03 4.749239712989398142e-03 1.711999999999999980e-03 -5.882313656881645557e-03 4.430442420578751227e-03 2.124000000000000020e-03 5.672630726652033370e-03 -5.649219294649769456e-03 -2.222000000000000017e-03 5.613557950017472598e-03 -5.219210681874765154e-03 -1.745999999999999939e-03 -6.098817581205374927e-03 4.834986671251560730e-03 2.769000000000000194e-03 -6.071966185540077048e-03 4.949568530857807909e-03 1.647000000000000026e-03 5.931645451366579676e-03 -5.588388608470441256e-03 -1.761999999999999894e-03 5.444031919329472141e-03 -4.506383967364730944e-03 -9.640000000000000131e-04 -5.460352492614587057e-03 4.238612350333265978e-03 1.275000000000000092e-03 -5.628524065011194545e-03 4.477355564347094800e-03 1.075000000000000001e-03 5.565048143647033027e-03 -5.188424342600627195e-03 -1.330999999999999935e-03 5.762070985158786358e-03 -5.002577631780569072e-03 -1.926999999999999894e-03 -6.374168739453118897e-03 5.125465138012224968e-03 1.056000000000000081e-03 -5.458868668147102282e-03 4.578632641293893871e-03 1.868000000000000086e-03 5.891618425524038256e-03 -5.527735189752280495e-03 -1.513000000000000022e-03 5.622766648972351081e-03 -4.710293006937493927e-03 -1.807999999999999928e-03 -6.167776299296380028e-03 4.962115327341544077e-03 1.407000000000000048e-03 -6.249088232062362247e-03 5.129448437005652145e-03 1.252000000000000075e-03 5.842770131461495070e-03 -5.083889671393494042e-03 -2.125000000000000153e-03 5.707335908881308768e-03 -5.605773347469015892e-03 -1.659000000000000101e-03 -5.941934870788133718e-03 4.578423199237051204e-03 1.603999999999999957e-03 -6.188370437441118380e-03 4.863434622672011855e-03 2.942999999999999870e-03 5.650940355045102823e-03 -4.823762131751807049e-03 -1.897000000000000032e-03 5.794066956976181952e-03 -4.693053387516148492e-03 -2.425000000000000072e-03 -6.267618174277639169e-03 4.910718829404169157e-03 1.856000000000000011e-03 -5.535923350401053544e-03 4.141818520708555502e-03 1.413999999999999892e-03 5.326611670117405335e-03 -4.593501618130669747e-03 -1.010999999999999963e-03 7.466929852496502831e-03 -5.087083504120667142e-03 -1.698999999999999989e-03 -5.557420380604845798e-03 4.545217675011606340e-03 9.979999999999999722e-04 -6.368734057705239052e-03 4.904348733748996672e-03 1.902999999999999961e-03 5.824611359056974629e-03 -4.721549694321185847e-03 -2.461000000000000080e-03 5.828578316991074940e-03 -5.343694583591161035e-03 -1.546000000000000065e-03 -5.471609046439598369e-03 4.346807960207163188e-03 1.830999999999999945e-03 -6.147536909767865529e-03 5.162815021191617323e-03 1.363000000000000062e-03 7.494345679240487119e-03 -4.999514260410653152e-03 -1.835000000000000043e-03 5.949449635425291261e-03 -5.476661212411982824e-03 -1.837000000000000091e-03 -6.084722637774543121e-03 4.840760107808900203e-03 1.446000000000000020e-03 -5.901101449961823620e-03 4.629771341789839893e-03 1.642000000000000013e-03 5.608574567384574071e-03 -5.590178559052203303e-03 -1.654000000000000088e-03 5.617815547782069666e-03 -5.017253080232057273e-03 -1.353000000000000036e-03 3.214079756553213932e-05 -4.255736941257664673e-04 -5.980000000000000072e-04 5.101964468003841041e-03 -2.275577194301768667e-03 -3.503000000000000037e-03 -5.019716720654527828e-03 3.158365565348852152e-03 3.232000000000000064e-03 -5.250525457853703545e-03 3.048073558238083899e-03 4.105000000000000142e-03 -1.912010228580917769e-04 -1.969420444141359154e-04 -9.650000000000000374e-04 6.182081753253486356e-03 -2.959085533757065210e-03 -2.846000000000000005e-03 -1.374022152634539602e-05 -1.698004897295851527e-04 -8.279999999999999600e-04 5.907601392604330294e-03 -2.800638281909929254e-03 -3.183000000000000065e-03 -4.932663445791671264e-03 3.346986156312967055e-03 3.364999999999999936e-03 -5.407537267329678814e-03 3.110613878712801660e-03 4.126999999999999592e-03 -1.061797693290227024e-04 -7.229700260201342877e-05 -5.029999999999999749e-04 5.177599434576032889e-03 -3.104904844770280548e-03 -3.020000000000000115e-03 -7.719482472052200013e-04 -6.106299236336104694e-04 -9.340000000000000429e-04 5.728366768056262180e-03 -2.503709082666889189e-03 -2.933999999999999976e-03 -5.369526349149369472e-03 2.490920268854599374e-03 3.092999999999999829e-03 -5.164601312265580148e-03 2.670638741077622797e-03 4.121999999999999796e-03 7.413554897398404978e-05 6.981346845935974084e-05 -4.920000000000000328e-04 5.244219738101615035e-03 -3.252998514986665726e-03 -2.577999999999999996e-03 -2.353884548848142542e-04 6.598820162020933595e-04 -1.600000000000000131e-04 5.127042280858438127e-03 -1.278852004842592717e-03 -2.622999999999999898e-03 -5.043342937060788476e-03 2.561668990950838332e-03 3.420999999999999996e-03 -4.971755404979485288e-03 2.721535263974601479e-03 2.900999999999999933e-03 -8.431805498590566302e-04 2.436299660127618427e-04 -2.349999999999999930e-04 5.172584865681684359e-03 -9.975499021707189082e-04 -2.710999999999999868e-03 2.335191763509017820e-05 2.696584653645495069e-04 -3.680000000000000003e-04 5.063018296186653187e-03 -1.403835721328968974e-03 -2.252000000000000095e-03 -5.278167041002122112e-03 3.008514199281585918e-03 3.403999999999999908e-03 -6.046067105787851156e-03 3.144916143923418093e-03 3.000000000000000062e-03 -4.409090823970049529e-05 3.047507043644006350e-04 -3.699999999999999811e-05 5.246139669229390144e-03 -1.335780135702640701e-03 -3.131999999999999802e-03 -1.217094339141506598e-04 1.259126607492787797e-03 4.800000000000000122e-05 6.266136112784717604e-03 -1.158206896912318019e-03 -2.488999999999999893e-03 -5.259217920844066856e-03 2.943200105509754562e-03 3.485999999999999949e-03 -5.463288207359501270e-03 2.816474740402730680e-03 2.928000000000000047e-03 1.013258062956861385e-04 6.394490448648188332e-04 1.299999999999999886e-04 5.768845867654122037e-03 -1.358212927066292574e-03 -2.628000000000000128e-03 -6.178252128115708705e-05 -5.440743699754137718e-04 5.450000000000000200e-04 5.230044131131842897e-03 -3.325779365263634938e-03 -2.902000000000000066e-03 -5.446564610208784636e-03 2.737194722123591911e-03 4.237000000000000315e-03 -4.767975598024132636e-03 2.396206522119167463e-03 4.429999999999999910e-03 -1.258707750090839669e-04 -1.149849903187915125e-04 3.460000000000000076e-04 5.553534780714814573e-03 -2.243855708237693647e-03 -1.955999999999999839e-03 -7.645799644438162717e-05 -4.618269965904017076e-04 4.530000000000000064e-04 5.587368604399050448e-03 -3.370547889969200545e-03 -2.389000000000000064e-03 -5.006815415960190301e-03 2.594084113999276138e-03 4.370999999999999885e-03 -5.468126871091206348e-03 1.462376668868290005e-03 4.250999999999999571e-03 -2.491130031452272139e-04 -5.630556914408787507e-04 -4.699999999999999724e-05 5.073323175180251624e-03 -1.943072041942600549e-03 -2.468999999999999841e-03 -1.588344688881262198e-04 -6.705256232934181208e-04 9.399999999999999448e-05 5.315775042163772487e-03 -3.033123917862368558e-03 -2.658999999999999905e-03 -5.932501270204366441e-03 3.055072941686271751e-03 4.322999999999999586e-03 -5.207628188350498129e-03 2.173267965966767506e-03 4.276000000000000287e-03 1.243704492118589034e-04 -1.094148066471279952e-03 -3.999999999999999819e-06 6.109752629479270336e-03 -2.544865184360691097e-03 -2.028999999999999988e-03 6.772692133002165143e-07 -1.440296542605470247e-04 1.043000000000000090e-03 5.100400353961718168e-03 -1.814492003098165402e-03 -3.186000000000000030e-03 -5.115091716084762229e-03 2.453812082462930241e-03 3.226999999999999834e-03 -5.344046100087356671e-03 1.776416415185679302e-03 2.897999999999999968e-03 -1.687039624382994946e-04 -2.283089421324027831e-04 1.113999999999999973e-03 5.789988149241691306e-03 -1.659593092188803255e-03 -3.384999999999999988e-03 -8.682730476453633486e-05 2.594340362160029172e-04 7.039999999999999817e-04 5.608156751740320592e-03 -2.143723594101973936e-03 -2.993000000000000001e-03 -4.806792937899945911e-03 2.841890506714716321e-03 3.144000000000000093e-03 -5.636975605854170450e-03 2.093181793109482117e-03 2.995999999999999965e-03 -1.362726051774777638e-04 -1.580433732059890935e-05 1.324000000000000090e-03 4.957693090243834103e-03 -1.857196064756912483e-03 -3.497000000000000108e-03 -7.103915624637036465e-04 -2.045698608797937609e-04 5.019999999999999506e-04 5.650489990840875353e-03 -2.061395610601494000e-03 -2.641999999999999817e-03 -5.675760984828196604e-03 1.858776813687454572e-03 3.135000000000000200e-03 -5.112334337270447310e-03 1.694668883282384169e-03 2.935000000000000109e-03 6.999089619094276642e-06 -1.128915580845924797e-07 1.497000000000000067e-03 5.458208621480409653e-03 -1.891272493427888441e-03 -3.040000000000000167e-03 -2.222290322082186526e-04 2.976226759569883988e-04 7.720000000000000083e-04 5.048680988174701623e-03 -2.478744294929054442e-03 -4.184000000000000219e-03 -5.281859887147203649e-03 3.523640749643095621e-03 2.912000000000000092e-03 -5.183518097557546916e-03 2.923976766715736912e-03 3.258000000000000045e-03 -7.106495468872825764e-04 -9.655165202574363646e-05 -6.380000000000000037e-04 5.291875194779736315e-03 -2.406657001501241386e-03 -3.063999999999999883e-03 1.145657055290702774e-04 -8.985932960258697180e-05 7.770000000000000214e-04 5.235011546669715923e-03 -2.583762974081557032e-03 -3.559000000000000098e-03 -5.284085303307598652e-03 3.757707081102604988e-03 2.933999999999999976e-03 -5.930985244429472052e-03 3.273076844554660778e-03 3.311000000000000141e-03 -1.511094074185804259e-05 -6.757179137484432854e-06 -9.799999999999999684e-05 5.095900632021625569e-03 -2.527512165858281090e-03 -3.367000000000000201e-03 -1.803148909152342680e-04 8.500185528058943956e-04 1.093000000000000005e-03 5.933195094170879043e-03 -2.205973702133966381e-03 -3.857000000000000185e-03 -5.322886676088386428e-03 3.832342551693514090e-03 2.846000000000000005e-03 -5.673486545489820135e-03 3.115903627865601253e-03 3.272999999999999868e-03 8.087673430470671020e-05 3.637429777304379140e-04 -3.970000000000000005e-04 5.765797314774594000e-03 -2.663333498632513684e-03 -2.895000000000000004e-03 -8.908545646705753049e-05 -6.246445240663332354e-04 -2.169999999999999891e-04 5.110737541109671572e-03 -2.227712455837218847e-03 -4.525000000000000376e-03 -5.797954586958132400e-03 2.281802490920540206e-03 2.360000000000000119e-03 -4.896087596018223846e-03 3.258384761214751409e-03 2.462999999999999912e-03 -2.338082401889877125e-04 1.377886309523709330e-04 5.069999999999999637e-04 5.739591120573865612e-03 -2.489888304448547533e-03 -4.145000000000000247e-03 -9.508464942883114630e-05 -5.625396958819850945e-04 -1.129999999999999955e-04 5.397490426183129165e-03 -2.555379638969811941e-03 -4.024999999999999932e-03 -5.173519691930790997e-03 2.241726789152583867e-03 2.467000000000000009e-03 -5.792648843998570753e-03 2.238711319067746182e-03 2.442999999999999859e-03 -2.908010942046846173e-04 -4.813727491345539083e-04 2.220000000000000022e-04 5.034263497435056446e-03 -2.504515130398092190e-03 -4.682000000000000398e-03 -1.058091604647169563e-04 -7.933967617540115718e-04 -4.290000000000000193e-04 5.235737411673224012e-03 -2.228728506571715697e-03 -4.168999999999999963e-03 -5.733978957670931957e-03 2.465794661561866372e-03 2.370000000000000145e-03 -5.019458843077892300e-03 2.802315100527984909e-03 2.448000000000000089e-03 2.712546738671378871e-04 -8.544857528977488001e-04 2.390000000000000089e-04 5.860043074083154217e-03 -2.772867679837985426e-03 -4.433999999999999574e-03 -3.099556763709510781e-05 9.306209082042237986e-04 -4.090000000000000211e-04 5.092627177513208737e-03 -1.800364804936451521e-03 -3.821000000000000178e-03 -5.154005633171069092e-03 3.327553295326899675e-03 2.554999999999999979e-03 -5.183082391573291467e-03 3.571053895163571121e-03 2.906000000000000163e-03 -1.511902579396699428e-04 -5.686356530364025750e-04 -4.970000000000000459e-04 6.032972887078148945e-03 -1.166447660111664042e-03 -3.461999999999999800e-03 3.210921062804531964e-05 1.122628165775669314e-03 -5.829999999999999679e-04 5.710224016170239482e-03 -2.388401491615812795e-03 -3.647000000000000068e-03 -4.821016526290002047e-03 3.696231006476556613e-03 2.716000000000000098e-03 -5.656827163971772481e-03 3.714712833712869363e-03 3.108000000000000086e-03 -1.415946357728942780e-04 -3.457614193636146744e-04 -2.930000000000000204e-04 5.035924963328009159e-03 -1.595423694110693295e-03 -3.782000000000000205e-03 -7.768663991594898293e-04 6.966194067473060764e-04 -7.119999999999999593e-04 5.722916039078150205e-03 -2.097568356374133070e-03 -3.493000000000000011e-03 -5.247300278594666315e-03 2.565958843446317257e-03 2.585000000000000058e-03 -4.993994160434869246e-03 3.388980720739268818e-03 3.284000000000000027e-03 1.341275587269273530e-04 -3.652106214090091916e-04 5.899999999999999754e-05 5.157957505497423774e-03 -1.532383558865994507e-03 -3.177000000000000136e-03 -1.148240906286859223e-04 -7.322434214189262741e-04 8.100000000000000375e-05 5.130315254555610840e-03 -3.122144517615098227e-03 -3.095999999999999794e-03 -4.812502292383296146e-03 1.867855906060620925e-03 2.792000000000000211e-03 -4.976948603633526112e-03 1.965520693554335171e-03 2.745000000000000044e-03 -5.637979776389215282e-04 -7.890100382189457317e-04 -5.019999999999999506e-04 5.078225573733382431e-03 -2.383208346385242912e-03 -2.668999999999999932e-03 5.489565542675291248e-05 -9.990152486400131083e-04 -2.039999999999999984e-04 5.115026966217376889e-03 -3.015884138170608127e-03 -2.541999999999999989e-03 -5.350803092242690379e-03 2.225583803869466380e-03 2.572000000000000067e-03 -5.889555431622687555e-03 2.617323407193639442e-03 2.674000000000000161e-03 -6.842688899576427654e-05 -7.079885315895740076e-04 -1.689999999999999879e-04 5.016604486377046306e-03 -2.545235632954582269e-03 -3.005999999999999991e-03 -2.324536750506515047e-04 -8.826261357701890799e-05 1.589999999999999888e-04 5.947854201563041246e-03 -2.847293521389901612e-03 -2.846000000000000005e-03 -5.489172148080510155e-03 2.327828629589648313e-03 2.700000000000000143e-03 -5.641394317002760075e-03 2.253273875961150051e-03 2.572000000000000067e-03 5.321736766322927898e-06 -3.521316218657307242e-04 -3.840000000000000097e-04 5.818032355579675838e-03 -2.897206328418471498e-03 -2.380999999999999870e-03 -8.748876715322524949e-05 -3.396332074783158243e-04 5.300000000000000078e-05 5.091562691258918159e-03 -2.052380413320167504e-03 -4.054999999999999577e-03 -5.533730536224103908e-03 3.099647617465720560e-03 2.700999999999999842e-03 -4.819710797347496675e-03 2.413043064251439804e-03 2.769999999999999893e-03 -1.329499137971943703e-04 1.244305959328861596e-03 6.000000000000000152e-05 5.788810477600223395e-03 -2.600696494100360016e-03 -3.148000000000000190e-03 3.881739329928486133e-05 -3.216678566121405772e-04 2.110000000000000059e-04 5.790423347702968251e-03 -2.190669179583349183e-03 -3.518999999999999993e-03 -4.988156481533123805e-03 2.758804617173733244e-03 2.931000000000000012e-03 -5.515911026152025068e-03 1.352132963718636607e-03 2.812999999999999962e-03 -1.752511118607544846e-04 6.679132037859180585e-04 1.210000000000000002e-04 4.985060321197611402e-03 -2.268690942817287205e-03 -3.556999999999999832e-03 -2.534027220820270492e-04 -4.569727130162357770e-04 -1.499999999999999869e-04 5.011669939939978127e-03 -1.859066812436292867e-03 -3.729000000000000110e-03 -5.748363819715395645e-03 3.310136461867856875e-03 2.910999999999999959e-03 -5.142507676387426258e-03 2.056202518794395494e-03 2.729999999999999788e-03 6.302416814967292194e-05 2.490159718352253585e-04 -2.640000000000000202e-04 5.792116453956878963e-03 -2.705763475213977462e-03 -3.223000000000000170e-03