2.269950000000000134e+00 2.491540000000000088e+00 3.185099999999999820e+00 6.415300000000000447e-01 3.036329999999999973e+00 1.512080000000000091e+00 1.702579999999999982e+00 8.786100000000000021e-01 1.512110000000000065e+00 3.114970000000000017e+00 3.036340000000000039e+00 1.512080000000000091e+00 1.208930000000000060e+00 4.649269999999999570e+00 3.185099999999999820e+00 2.621319999999999872e+00 6.807000000000000384e+00 3.185090000000000199e+00 2.053960000000000008e+00 5.194079999999999586e+00 1.512110000000000065e+00 3.682360000000000078e+00 4.649280000000000079e+00 3.185099999999999820e+00 1.911129999999999995e+00 3.531499999999999861e+00 6.227769999999999584e+00 2.972179999999999822e+00 1.373780000000000001e+00 6.227809999999999846e+00 4.384579999999999700e+00 3.531489999999999796e+00 6.227780000000000094e+00 3.323560000000000070e+00 5.689239999999999853e+00 6.227809999999999846e+00 3.539550000000000196e+00 2.986699999999999910e+00 7.900780000000000136e+00 2.478530000000000122e+00 5.144429999999999836e+00 7.900789999999999758e+00 3.890919999999999934e+00 7.302159999999999762e+00 7.900789999999999758e+00 4.951959999999999695e+00 5.144429999999999836e+00 7.900800000000000267e+00 4.809169999999999945e+00 3.481860000000000177e+00 1.261647999999999925e+01 3.180759999999999810e+00 4.026650000000000063e+00 1.094345999999999997e+01 4.241810000000000080e+00 1.868929999999999980e+00 1.094349000000000061e+01 5.654189999999999827e+00 4.026670000000000194e+00 1.094346999999999959e+01 3.748130000000000184e+00 5.639590000000000103e+00 1.261646999999999963e+01 5.160540000000000127e+00 7.797329999999999650e+00 1.261647999999999925e+01 4.593169999999999753e+00 6.184409999999999741e+00 1.094349000000000061e+01 6.221580000000000332e+00 5.639590000000000103e+00 1.261649000000000065e+01 1.911650000000000071e+00 1.328021000000000029e+01 3.185090000000000199e+00 4.385089999999999932e+00 1.328021999999999991e+01 3.185090000000000199e+00 9.929099999999999593e-01 7.351810000000000400e+00 1.512070000000000025e+00 3.466340000000000199e+00 7.351799999999999891e+00 1.512089999999999934e+00 1.560279999999999889e+00 8.964740000000000819e+00 3.185099999999999820e+00 2.972700000000000120e+00 1.112246999999999986e+01 3.185090000000000199e+00 1.344270000000000076e+00 1.166727999999999987e+01 1.512089999999999934e+00 2.405310000000000059e+00 9.509560000000000457e+00 1.512110000000000065e+00 4.033719999999999750e+00 8.964740000000000819e+00 3.185099999999999820e+00 3.817709999999999937e+00 1.166728999999999949e+01 1.512089999999999934e+00 2.262509999999999799e+00 7.846969999999999779e+00 6.227780000000000094e+00 4.735940000000000261e+00 7.846969999999999779e+00 6.227769999999999584e+00 2.613879999999999981e+00 1.216244999999999976e+01 6.227769999999999584e+00 3.674920000000000186e+00 1.000470999999999933e+01 6.227809999999999846e+00 5.087320000000000064e+00 1.216244000000000014e+01 6.227780000000000094e+00 3.181270000000000042e+00 1.377538999999999980e+01 7.900789999999999758e+00 5.654709999999999681e+00 1.377538000000000018e+01 7.900800000000000267e+00 2.829899999999999860e+00 9.459920000000000329e+00 7.900780000000000136e+00 4.242309999999999803e+00 1.161763999999999974e+01 7.900780000000000136e+00 5.303340000000000387e+00 9.459899999999999309e+00 7.900789999999999758e+00 4.450870000000000104e+00 1.427053000000000083e+01 1.261647999999999925e+01 6.924319999999999808e+00 1.427055000000000007e+01 1.261647999999999925e+01 3.532119999999999926e+00 8.342140000000000555e+00 1.094345999999999997e+01 6.005569999999999631e+00 8.342140000000000555e+00 1.094347999999999921e+01 4.099510000000000431e+00 9.955080000000000595e+00 1.261646999999999963e+01 5.511899999999999800e+00 1.211280000000000001e+01 1.261647999999999925e+01 3.883500000000000174e+00 1.265761000000000003e+01 1.094346999999999959e+01 4.944530000000000314e+00 1.049987999999999921e+01 1.094350999999999985e+01 6.572949999999999626e+00 9.955059999999999576e+00 1.261646999999999963e+01 6.356939999999999813e+00 1.265760000000000041e+01 1.094347999999999921e+01 4.743400000000000283e+00 2.491530000000000022e+00 3.185090000000000199e+00 4.176009999999999778e+00 8.786100000000000021e-01 1.512110000000000065e+00 7.216829999999999856e+00 2.491540000000000088e+00 3.185080000000000133e+00 5.588409999999999656e+00 3.036329999999999973e+00 1.512080000000000091e+00 6.649460000000000370e+00 8.786100000000000021e-01 1.512100000000000000e+00 5.094750000000000334e+00 6.806989999999999874e+00 3.185080000000000133e+00 4.527400000000000091e+00 5.194090000000000096e+00 1.512100000000000000e+00 6.155789999999999651e+00 4.649269999999999570e+00 3.185090000000000199e+00 7.568200000000000038e+00 6.807010000000000005e+00 3.185099999999999820e+00 7.000820000000000043e+00 5.194090000000000096e+00 1.512110000000000065e+00 5.445619999999999905e+00 1.373769999999999936e+00 6.227800000000000225e+00 6.858010000000000161e+00 3.531509999999999927e+00 6.227780000000000094e+00 7.919069999999999609e+00 1.373780000000000001e+00 6.227800000000000225e+00 5.796990000000000087e+00 5.689250000000000362e+00 6.227809999999999846e+00 8.270440000000000680e+00 5.689239999999999853e+00 6.227800000000000225e+00 6.012990000000000279e+00 2.986679999999999779e+00 7.900800000000000267e+00 8.486449999999999605e+00 2.986689999999999845e+00 7.900800000000000267e+00 6.364359999999999573e+00 7.302159999999999762e+00 7.900789999999999758e+00 7.425410000000000288e+00 5.144420000000000215e+00 7.900789999999999758e+00 8.837809999999999278e+00 7.302170000000000272e+00 7.900789999999999758e+00 7.282610000000000028e+00 3.481850000000000112e+00 1.261647999999999925e+01 6.715230000000000032e+00 1.868929999999999980e+00 1.094349000000000061e+01 9.756059999999999732e+00 3.481860000000000177e+00 1.261646999999999963e+01 8.127620000000000289e+00 4.026659999999999684e+00 1.094345999999999997e+01 9.188670000000000115e+00 1.868940000000000046e+00 1.094349000000000061e+01 7.633980000000000210e+00 7.797320000000000029e+00 1.261647999999999925e+01 7.066609999999999836e+00 6.184409999999999741e+00 1.094350000000000023e+01 8.695000000000000284e+00 5.639599999999999724e+00 1.261649000000000065e+01 1.010740999999999978e+01 7.797329999999999650e+00 1.261646999999999963e+01 9.540050000000000807e+00 6.184409999999999741e+00 1.094350000000000023e+01 6.858539999999999637e+00 1.328021000000000029e+01 3.185090000000000199e+00 5.939779999999999838e+00 7.351810000000000400e+00 1.512089999999999934e+00 5.446130000000000138e+00 1.112246999999999986e+01 3.185090000000000199e+00 4.878750000000000142e+00 9.509550000000000836e+00 1.512110000000000065e+00 6.507159999999999833e+00 8.964750000000000441e+00 3.185090000000000199e+00 7.919570000000000221e+00 1.112246999999999986e+01 3.185090000000000199e+00 6.291150000000000020e+00 1.166727000000000025e+01 1.512089999999999934e+00 7.352199999999999847e+00 9.509550000000000836e+00 1.512100000000000000e+00 7.209380000000000344e+00 7.846969999999999779e+00 6.227780000000000094e+00 6.148360000000000269e+00 1.000472000000000072e+01 6.227800000000000225e+00 7.560769999999999769e+00 1.216244000000000014e+01 6.227780000000000094e+00 8.621800000000000352e+00 1.000473000000000035e+01 6.227800000000000225e+00 8.128149999999999764e+00 1.377537000000000056e+01 7.900800000000000267e+00 6.715740000000000265e+00 1.161763999999999974e+01 7.900789999999999758e+00 7.776769999999999960e+00 9.459910000000000707e+00 7.900789999999999758e+00 9.189170000000000726e+00 1.161764999999999937e+01 7.900789999999999758e+00 9.397759999999999891e+00 1.427053000000000083e+01 1.261647999999999925e+01 8.478989999999999583e+00 8.342129999999999157e+00 1.094346999999999959e+01 7.985350000000000392e+00 1.211280999999999963e+01 1.261647999999999925e+01 7.417970000000000397e+00 1.049989000000000061e+01 1.094350000000000023e+01 9.046390000000000597e+00 9.955069999999999197e+00 1.261646999999999963e+01 1.045879000000000048e+01 1.211280999999999963e+01 1.261647999999999925e+01 8.830370000000000275e+00 1.265761000000000003e+01 1.094346999999999959e+01 9.891420000000000101e+00 1.049989000000000061e+01 1.094349000000000061e+01 7.495100000000000096e-01 1.685079999999999911e+00 2.348580000000000112e+00 1.634609999999999896e+00 2.244549999999999823e+00 8.248699999999999921e-01 2.222300000000000109e-01 8.677999999999999603e-02 8.248600000000000376e-01 2.161929999999999907e+00 3.842820000000000125e+00 2.348629999999999995e+00 3.222929999999999851e+00 1.685070000000000068e+00 2.348580000000000112e+00 2.695669999999999789e+00 8.679000000000000603e-02 8.248400000000000176e-01 1.100870000000000015e+00 6.000549999999999606e+00 2.348580000000000112e+00 5.735999999999999988e-01 4.402250000000000441e+00 8.248499999999999721e-01 3.574310000000000098e+00 6.000549999999999606e+00 2.348580000000000112e+00 3.047029999999999905e+00 4.402260000000000062e+00 8.248499999999999721e-01 1.276899999999999924e+00 3.283329999999999860e+00 3.872430000000000039e+00 2.337950000000000195e+00 1.125599999999999934e+00 3.872469999999999857e+00 3.750329999999999941e+00 3.283310000000000173e+00 3.872440000000000104e+00 2.689309999999999867e+00 5.441069999999999851e+00 3.872469999999999857e+00 2.019109999999999960e+00 2.180239999999999956e+00 7.064280000000000115e+00 2.904230000000000089e+00 2.739710000000000090e+00 5.540549999999999642e+00 1.491829999999999989e+00 5.819400000000000128e-01 5.540540000000000020e+00 3.431540000000000035e+00 4.337979999999999947e+00 7.064339999999999620e+00 4.492560000000000109e+00 2.180229999999999890e+00 7.064269999999999605e+00 3.965269999999999850e+00 5.819400000000000128e-01 5.540549999999999642e+00 2.370480000000000143e+00 6.495720000000000383e+00 7.064280000000000115e+00 1.843199999999999950e+00 4.897420000000000329e+00 5.540540000000000020e+00 4.843919999999999781e+00 6.495709999999999873e+00 7.064280000000000115e+00 4.316629999999999967e+00 4.897420000000000329e+00 5.540540000000000020e+00 2.546510000000000051e+00 3.778469999999999995e+00 8.588119999999999976e+00 3.607549999999999812e+00 1.620759999999999978e+00 8.588179999999999481e+00 5.019949999999999690e+00 3.778490000000000126e+00 8.588119999999999976e+00 3.958930000000000060e+00 5.936230000000000118e+00 8.588169999999999860e+00 4.173840000000000217e+00 3.234869999999999912e+00 1.025624999999999964e+01 2.761439999999999895e+00 1.077099999999999946e+00 1.025624999999999964e+01 5.234880000000000422e+00 1.077099999999999946e+00 1.025624000000000002e+01 3.112820000000000142e+00 5.392579999999999707e+00 1.025624000000000002e+01 5.586249999999999716e+00 5.392570000000000086e+00 1.025624000000000002e+01 3.288720000000000088e+00 2.675399999999999778e+00 1.177997000000000050e+01 3.816120000000000179e+00 4.273649999999999949e+00 1.330381999999999998e+01 4.701159999999999783e+00 4.833149999999999835e+00 1.178002000000000038e+01 4.877169999999999561e+00 2.115920000000000023e+00 1.330386000000000024e+01 5.762170000000000236e+00 2.675390000000000157e+00 1.177997000000000050e+01 6.289559999999999818e+00 4.273629999999999818e+00 1.330381999999999998e+01 3.640099999999999891e+00 6.990859999999999630e+00 1.177996000000000087e+01 5.228530000000000122e+00 6.431390000000000384e+00 1.330386000000000024e+01 6.113540000000000418e+00 6.990870000000000140e+00 1.177996000000000087e+01 1.985980000000000079e+00 6.560030000000000250e+00 8.248600000000000376e-01 2.513310000000000155e+00 8.158289999999999154e+00 2.348640000000000061e+00 1.452250000000000041e+00 1.031601999999999997e+01 2.348580000000000112e+00 2.337359999999999882e+00 1.087548999999999921e+01 8.248699999999999921e-01 9.249600000000000044e-01 8.717719999999999914e+00 8.248600000000000376e-01 2.864669999999999828e+00 1.247376000000000040e+01 2.348640000000000061e+00 3.925679999999999836e+00 1.031602999999999959e+01 2.348590000000000177e+00 3.398400000000000087e+00 8.717739999999999156e+00 8.248499999999999721e-01 1.628270000000000106e+00 7.598790000000000155e+00 3.872430000000000039e+00 4.101700000000000124e+00 7.598799999999999777e+00 3.872430000000000039e+00 1.979630000000000001e+00 1.191424999999999912e+01 3.872430000000000039e+00 3.040690000000000115e+00 9.756550000000000722e+00 3.872469999999999857e+00 4.453079999999999927e+00 1.191426000000000052e+01 3.872430000000000039e+00 3.255599999999999827e+00 7.055180000000000007e+00 5.540549999999999642e+00 3.782919999999999838e+00 8.653439999999999799e+00 7.064339999999999620e+00 2.721859999999999946e+00 1.081118999999999986e+01 7.064280000000000115e+00 3.606970000000000010e+00 1.137066000000000088e+01 5.540549999999999642e+00 2.194570000000000132e+00 9.212889999999999802e+00 5.540549999999999642e+00 4.134290000000000020e+00 1.296892000000000067e+01 7.064329999999999998e+00 5.195299999999999585e+00 1.081117000000000061e+01 7.064269999999999605e+00 4.668009999999999771e+00 9.212889999999999802e+00 5.540560000000000151e+00 2.897879999999999789e+00 8.093949999999999534e+00 8.588129999999999598e+00 5.371319999999999872e+00 8.093939999999999912e+00 8.588119999999999976e+00 3.249249999999999972e+00 1.240942000000000078e+01 8.588119999999999976e+00 4.310299999999999798e+00 1.025170999999999921e+01 8.588179999999999481e+00 5.722690000000000055e+00 1.240942000000000078e+01 8.588119999999999976e+00 4.525220000000000020e+00 7.550349999999999895e+00 1.025624000000000002e+01 4.876579999999999693e+00 1.186581999999999937e+01 1.025624999999999964e+01 3.464189999999999880e+00 9.708059999999999690e+00 1.025624000000000002e+01 5.937619999999999898e+00 9.708059999999999690e+00 1.025623000000000040e+01 4.167489999999999917e+00 8.589109999999999800e+00 1.330381000000000036e+01 5.052529999999999966e+00 9.148609999999999687e+00 1.178002000000000038e+01 6.640930000000000000e+00 8.589119999999999422e+00 1.330381999999999998e+01 3.991460000000000008e+00 1.130634000000000050e+01 1.177996000000000087e+01 4.518860000000000099e+00 1.290459000000000067e+01 1.330382999999999960e+01 5.403889999999999638e+00 1.346407999999999916e+01 1.178002000000000038e+01 5.579909999999999926e+00 1.074686999999999948e+01 1.330385000000000062e+01 6.464909999999999712e+00 1.130635000000000012e+01 1.177998000000000012e+01 6.992300000000000182e+00 1.290460000000000029e+01 1.330382999999999960e+01 4.108050000000000423e+00 2.244549999999999823e+00 8.248499999999999721e-01 4.635369999999999990e+00 3.842820000000000125e+00 2.348629999999999995e+00 5.696390000000000065e+00 1.685079999999999911e+00 2.348570000000000046e+00 6.581489999999999618e+00 2.244549999999999823e+00 8.248699999999999921e-01 5.169109999999999872e+00 8.677999999999999603e-02 8.248600000000000376e-01 7.108819999999999695e+00 3.842820000000000125e+00 2.348629999999999995e+00 6.047749999999999737e+00 6.000549999999999606e+00 2.348570000000000046e+00 5.520480000000000054e+00 4.402269999999999683e+00 8.248499999999999721e-01 4.811379999999999768e+00 1.125599999999999934e+00 3.872479999999999922e+00 6.223790000000000155e+00 3.283329999999999860e+00 3.872419999999999973e+00 7.284819999999999851e+00 1.125609999999999999e+00 3.872469999999999857e+00 5.162759999999999572e+00 5.441080000000000361e+00 3.872469999999999857e+00 7.636190000000000033e+00 5.441069999999999851e+00 3.872479999999999922e+00 5.377670000000000172e+00 2.739710000000000090e+00 5.540560000000000151e+00 5.904980000000000118e+00 4.337970000000000326e+00 7.064339999999999620e+00 6.966000000000000192e+00 2.180239999999999956e+00 7.064269999999999605e+00 7.851110000000000255e+00 2.739710000000000090e+00 5.540560000000000151e+00 6.438710000000000377e+00 5.819499999999999673e-01 5.540549999999999642e+00 8.378429999999999822e+00 4.337989999999999569e+00 7.064329999999999998e+00 7.317370000000000374e+00 6.495709999999999873e+00 7.064269999999999605e+00 6.790090000000000181e+00 4.897429999999999950e+00 5.540549999999999642e+00 6.081000000000000405e+00 1.620759999999999978e+00 8.588169999999999860e+00 7.493389999999999773e+00 3.778480000000000061e+00 8.588119999999999976e+00 8.554439999999999600e+00 1.620759999999999978e+00 8.588160000000000238e+00 6.432369999999999699e+00 5.936239999999999739e+00 8.588169999999999860e+00 8.905799999999999272e+00 5.936239999999999739e+00 8.588160000000000238e+00 6.647280000000000300e+00 3.234879999999999978e+00 1.025624000000000002e+01 9.120720000000000383e+00 3.234869999999999912e+00 1.025625999999999927e+01 7.708319999999999617e+00 1.077099999999999946e+00 1.025623000000000040e+01 8.059689999999999799e+00 5.392590000000000217e+00 1.025623000000000040e+01 7.174599999999999866e+00 4.833149999999999835e+00 1.178002000000000038e+01 7.350609999999999644e+00 2.115920000000000023e+00 1.330386000000000024e+01 8.235599999999999810e+00 2.675399999999999778e+00 1.177996000000000087e+01 8.762999999999999901e+00 4.273649999999999949e+00 1.330381999999999998e+01 9.648020000000000707e+00 4.833140000000000214e+00 1.178003000000000000e+01 9.824049999999999727e+00 2.115930000000000089e+00 1.330385000000000062e+01 7.701979999999999826e+00 6.431400000000000006e+00 1.330386000000000024e+01 8.586970000000000880e+00 6.990870000000000140e+00 1.177997000000000050e+01 1.017540999999999940e+01 6.431409999999999627e+00 1.330386999999999986e+01 4.459439999999999849e+00 6.560010000000000119e+00 8.248600000000000376e-01 4.986740000000000173e+00 8.158289999999999154e+00 2.348640000000000061e+00 6.932859999999999800e+00 6.560030000000000250e+00 8.248699999999999921e-01 7.460180000000000256e+00 8.158289999999999154e+00 2.348640000000000061e+00 4.810800000000000409e+00 1.087550000000000061e+01 8.248699999999999921e-01 5.338119999999999976e+00 1.247377000000000002e+01 2.348629999999999995e+00 6.399119999999999919e+00 1.031602999999999959e+01 2.348590000000000177e+00 7.284229999999999983e+00 1.087548999999999921e+01 8.248600000000000376e-01 5.871850000000000236e+00 8.717729999999999535e+00 8.248499999999999721e-01 7.811550000000000438e+00 1.247376000000000040e+01 2.348640000000000061e+00 6.575149999999999828e+00 7.598790000000000155e+00 3.872430000000000039e+00 5.514120000000000132e+00 9.756539999999999324e+00 3.872469999999999857e+00 6.926510000000000389e+00 1.191427000000000014e+01 3.872430000000000039e+00 7.987560000000000215e+00 9.756550000000000722e+00 3.872489999999999988e+00 5.729040000000000354e+00 7.055189999999999628e+00 5.540549999999999642e+00 6.256350000000000300e+00 8.653449999999999420e+00 7.064329999999999998e+00 8.202469999999999928e+00 7.055200000000000138e+00 5.540560000000000151e+00 8.729799999999999116e+00 8.653449999999999420e+00 7.064329999999999998e+00 6.080400000000000027e+00 1.137066000000000088e+01 5.540560000000000151e+00 6.607719999999999594e+00 1.296892000000000067e+01 7.064339999999999620e+00 7.668730000000000047e+00 1.081118000000000023e+01 7.064280000000000115e+00 8.553850000000000620e+00 1.137067000000000050e+01 5.540549999999999642e+00 7.141449999999999854e+00 9.212889999999999802e+00 5.540549999999999642e+00 9.081160000000000565e+00 1.296893000000000029e+01 7.064320000000000377e+00 7.844759999999999955e+00 8.093939999999999912e+00 8.588119999999999976e+00 6.783739999999999881e+00 1.025170999999999921e+01 8.588169999999999860e+00 8.196120000000000516e+00 1.240942000000000078e+01 8.588129999999999598e+00 9.257179999999999964e+00 1.025169999999999959e+01 8.588160000000000238e+00 6.998639999999999972e+00 7.550340000000000273e+00 1.025624000000000002e+01 9.472089999999999677e+00 7.550360000000000404e+00 1.025624999999999964e+01 7.350010000000000154e+00 1.186581999999999937e+01 1.025624999999999964e+01 9.823470000000000368e+00 1.186580999999999975e+01 1.025624999999999964e+01 8.411070000000000491e+00 9.708050000000000068e+00 1.025624999999999964e+01 7.525960000000000427e+00 9.148609999999999687e+00 1.178003000000000000e+01 9.114359999999999573e+00 8.589119999999999422e+00 1.330381000000000036e+01 9.999399999999999622e+00 9.148609999999999687e+00 1.178001000000000076e+01 7.877329999999999721e+00 1.346407999999999916e+01 1.178002000000000038e+01 8.053340000000000387e+00 1.074688000000000088e+01 1.330386000000000024e+01 8.938340000000000174e+00 1.130634000000000050e+01 1.177998000000000012e+01 9.465730000000000643e+00 1.290459000000000067e+01 1.330382999999999960e+01 1.035077000000000069e+01 1.346407999999999916e+01 1.178002000000000038e+01 1.052679000000000009e+01 1.074686999999999948e+01 1.330386000000000024e+01