1.745441679500000021e+02
1.731246824600000025e+02
1.685334206199999869e+02
1.608171337100000073e+02
1.500663696299999970e+02
1.364294844000000069e+02
1.201337852199999929e+02
1.014968894699999993e+02
8.092845726000000184e+01
5.892830201999999673e+01
