2.675866000000000078e+00 -1.032837000000000005e+00 1.203065000000000051e+00 -2.680368999999999780e+00 1.032456000000000040e+00 -1.199842000000000075e+00 -2.676168999999999798e+00 1.029163000000000050e+00 -1.201988999999999974e+00 -2.678298999999999985e+00 1.031879999999999908e+00 -1.199810000000000043e+00 2.674657999999999980e+00 -1.027994000000000074e+00 1.203891999999999962e+00 2.675218000000000096e+00 -1.033201999999999954e+00 1.204331000000000040e+00 -2.677325999999999873e+00 1.031524000000000107e+00 -1.201491000000000087e+00 2.675208000000000030e+00 -1.030161000000000104e+00 1.205322999999999922e+00 -2.678992000000000040e+00 1.032027000000000028e+00 -1.200091999999999937e+00 -2.676690999999999931e+00 1.029916000000000054e+00 -1.201759999999999939e+00 -2.680025000000000102e+00 1.033709999999999907e+00 -1.200129000000000001e+00 -2.677589000000000219e+00 1.030942999999999943e+00 -1.201141000000000014e+00 2.677045000000000119e+00 -1.035665000000000058e+00 1.202430000000000110e+00 2.674005999999999883e+00 -1.027450999999999892e+00 1.204059999999999908e+00 2.675495999999999874e+00 -1.033317000000000041e+00 1.203146000000000049e+00 2.674957000000000029e+00 -1.028076999999999908e+00 1.203330999999999928e+00 2.675265000000000004e+00 -1.033398000000000039e+00 1.203119000000000050e+00 -2.680909999999999904e+00 1.034315000000000095e+00 -1.199367000000000072e+00 -2.677902000000000005e+00 1.031176000000000093e+00 -1.201038000000000050e+00 -2.678169000000000022e+00 1.030529999999999946e+00 -1.199586999999999959e+00 2.673795000000000144e+00 -1.028921999999999892e+00 1.203848999999999947e+00 2.676855000000000206e+00 -1.035638000000000059e+00 1.203284999999999938e+00 -2.676305000000000156e+00 1.030078999999999967e+00 -1.202598000000000056e+00 2.674392999999999798e+00 -1.028604000000000074e+00 1.205168999999999935e+00 2.674233000000000082e+00 -1.028718999999999939e+00 1.204020000000000090e+00 2.674815999999999860e+00 -1.029819999999999958e+00 1.203991999999999951e+00 -2.679984000000000144e+00 1.032548000000000021e+00 -1.198995999999999951e+00 -2.678408999999999818e+00 1.033789000000000069e+00 -1.201106999999999925e+00 2.674376999999999782e+00 -1.027994999999999992e+00 1.203263999999999889e+00 2.675024000000000068e+00 -1.031790999999999903e+00 1.203448999999999991e+00 -2.680083999999999911e+00 1.032774000000000081e+00 -1.199645000000000072e+00 -2.676485000000000003e+00 1.028367999999999949e+00 -1.200882000000000005e+00 2.674452000000000051e+00 -1.027932000000000068e+00 1.203743000000000007e+00 -2.679330000000000211e+00 1.033584999999999976e+00 -1.200015000000000054e+00 -2.678923000000000165e+00 1.032929999999999904e+00 -1.200215000000000032e+00 -2.679120000000000168e+00 1.031829000000000107e+00 -1.200023999999999980e+00 -2.679562999999999917e+00 1.031557000000000057e+00 -1.198688999999999893e+00 -2.677141000000000215e+00 1.030801000000000078e+00 -1.202029999999999932e+00 -2.679535000000000000e+00 1.032367000000000035e+00 -1.199435000000000029e+00 2.675555000000000128e+00 -1.030027999999999944e+00 1.203356000000000092e+00 2.673567999999999945e+00 -1.027697000000000083e+00 1.205154000000000059e+00 2.675473999999999908e+00 -1.030053000000000107e+00 1.203352999999999895e+00 2.675456000000000056e+00 -1.033444999999999947e+00 1.203165999999999958e+00 2.673541999999999863e+00 -1.028796000000000044e+00 1.205257000000000023e+00 2.674793000000000198e+00 -1.028755000000000086e+00 1.203041999999999945e+00 2.675243000000000038e+00 -1.030664000000000025e+00 1.204731999999999914e+00 -2.679822000000000148e+00 1.032024000000000052e+00 -1.199529000000000067e+00 -2.678392999999999802e+00 1.033169000000000004e+00 -1.200582000000000038e+00 2.674831999999999876e+00 -1.030230999999999897e+00 1.203872000000000053e+00 2.674786999999999804e+00 -1.031728999999999896e+00 1.203046999999999978e+00 -2.679657999999999873e+00 1.032208000000000014e+00 -1.199429000000000078e+00 -2.675837000000000021e+00 1.029703000000000035e+00 -1.202234000000000025e+00 2.674243000000000148e+00 -1.028370999999999924e+00 1.204018999999999950e+00 -2.679977000000000054e+00 1.033514000000000044e+00 -1.199786999999999937e+00 2.676184000000000118e+00 -1.033433000000000046e+00 1.202779999999999960e+00 -2.676702000000000137e+00 1.030437999999999965e+00 -1.202517000000000058e+00 2.676318999999999892e+00 -1.034415000000000084e+00 1.203278000000000070e+00 -2.681010000000000115e+00 1.035063999999999984e+00 -1.199726000000000070e+00 -2.676505999999999830e+00 1.029263000000000039e+00 -1.201510000000000078e+00 2.675530999999999882e+00 -1.032545000000000046e+00 1.202898999999999941e+00 -2.677366000000000135e+00 1.029389000000000109e+00 -1.201295000000000002e+00 2.673201999999999856e+00 -1.028051000000000048e+00 1.204056999999999933e+00 2.676274999999999959e+00 -1.034572000000000047e+00 1.203889999999999905e+00 -2.675222999999999907e+00 1.028707000000000038e+00 -1.203173999999999966e+00 -2.675977000000000050e+00 1.027768000000000015e+00 -1.202385999999999955e+00 -2.679114999999999913e+00 1.033639999999999892e+00 -1.200388999999999928e+00 -2.675804999999999989e+00 1.028583999999999943e+00 -1.202066999999999997e+00 -2.676441000000000070e+00 1.028499000000000052e+00 -1.202015000000000056e+00 -2.676163999999999987e+00 1.030705999999999900e+00 -1.202382000000000062e+00 2.676609000000000016e+00 -1.033870000000000067e+00 1.202528999999999959e+00 2.675942000000000043e+00 -1.032130999999999910e+00 1.203241000000000005e+00 2.676578999999999819e+00 -1.034024999999999972e+00 1.201770999999999923e+00 2.672979999999999912e+00 -1.027679999999999927e+00 1.204293999999999976e+00 2.676458999999999921e+00 -1.032999000000000001e+00 1.203476999999999908e+00 2.676473000000000102e+00 -1.032631999999999994e+00 1.202345999999999915e+00 -2.676174000000000053e+00 1.030078000000000049e+00 -1.202984000000000053e+00 2.675679000000000141e+00 -1.033128999999999964e+00 1.203929000000000027e+00 -2.679637000000000047e+00 1.033385999999999916e+00 -1.200028000000000095e+00 -2.676372000000000195e+00 1.028118000000000087e+00 -1.201459000000000055e+00 2.675581000000000209e+00 -1.033128000000000046e+00 1.203465999999999925e+00 -2.676177000000000028e+00 1.028928000000000065e+00 -1.202039999999999997e+00 2.674919000000000047e+00 -1.029465999999999992e+00 1.204150000000000054e+00 2.676588000000000189e+00 -1.033943999999999974e+00 1.202781000000000100e+00 -2.676054000000000155e+00 1.029832000000000081e+00 -1.202255000000000074e+00 2.672822000000000031e+00 -1.026153000000000093e+00 1.204312000000000049e+00 -2.680400000000000116e+00 1.035341999999999985e+00 -1.199524999999999952e+00 2.675380999999999787e+00 -1.032478000000000007e+00 1.202822000000000058e+00 -2.676769000000000176e+00 1.030053000000000107e+00 -1.201672000000000073e+00 2.674506000000000050e+00 -1.029161999999999910e+00 1.203430000000000000e+00 2.675701000000000107e+00 -1.034089999999999954e+00 1.203335000000000043e+00 -2.680118999999999918e+00 1.033824999999999994e+00 -1.199467999999999979e+00 -2.677296000000000120e+00 1.030111999999999917e+00 -1.200617000000000045e+00 -2.680372000000000199e+00 1.033975000000000088e+00 -1.199748000000000037e+00 -2.676648000000000138e+00 1.029476999999999975e+00 -1.202733000000000052e+00 -2.680505000000000138e+00 1.034550000000000081e+00 -1.199591000000000074e+00 -2.676514000000000060e+00 1.030388999999999999e+00 -1.201643999999999934e+00 2.673944000000000099e+00 -1.028180000000000094e+00 1.203913000000000011e+00 2.676432999999999840e+00 -1.033784999999999954e+00 1.202812999999999910e+00 2.674671000000000021e+00 -1.029541000000000039e+00 1.204495000000000093e+00 2.676727000000000078e+00 -1.034750999999999976e+00 1.203076000000000034e+00 2.674336999999999964e+00 -1.027736999999999901e+00 1.203975000000000017e+00 -2.679549000000000181e+00 1.032977000000000034e+00 -1.199920000000000098e+00 2.676000000000000156e+00 -1.032941000000000109e+00 1.203000000000000069e+00 -2.676679000000000030e+00 1.027925999999999895e+00 -1.201756000000000046e+00 2.673963000000000090e+00 -1.028553999999999968e+00 1.204804999999999904e+00 2.676238999999999812e+00 -1.033836999999999895e+00 1.204078999999999899e+00 -2.679498999999999853e+00 1.031949000000000005e+00 -1.199507000000000101e+00 -2.676896000000000164e+00 1.028558000000000083e+00 -1.201527000000000012e+00 1.510999999999999973e-03 -3.506000000000000002e-03 2.706000000000000072e-03 1.409448000000000079e+01 2.787386000000000141e+00 -2.769297200000000103e+01 1.409241899999999958e+01 2.791482999999999937e+00 -2.768944000000000116e+01 2.521999999999999936e-03 -2.622999999999999898e-03 1.119999999999999983e-04 1.958999999999999804e-03 -2.541999999999999989e-03 1.972999999999999927e-03 1.409111399999999925e+01 2.791695999999999955e+00 -2.768894500000000036e+01 2.049000000000000040e-03 -4.048999999999999648e-03 1.533999999999999990e-03 1.409164999999999957e+01 2.792375999999999969e+00 -2.768881199999999865e+01 1.918000000000000000e-03 -4.464000000000000086e-03 2.154999999999999798e-03 1.409226199999999984e+01 2.791206999999999994e+00 -2.769039100000000175e+01 -1.409289899999999918e+01 -2.789763999999999911e+00 2.768883399999999995e+01 -1.409203399999999995e+01 -2.788682000000000105e+00 2.768633200000000016e+01 -1.409228000000000058e+01 -2.788152000000000186e+00 2.768699099999999902e+01 -1.409252099999999963e+01 -2.788002999999999787e+00 2.768772999999999840e+01 2.399999999999999790e-03 -2.478999999999999867e-03 6.030000000000000204e-04 1.409316500000000083e+01 2.788746999999999865e+00 -2.769213699999999889e+01 1.409221900000000005e+01 2.792820999999999998e+00 -2.769079100000000082e+01 3.956999999999999580e-03 -1.529999999999999893e-03 -2.981999999999999842e-03 -4.199999999999999768e-05 -2.158999999999999895e-03 3.929000000000000201e-03 1.409099900000000005e+01 2.792835999999999874e+00 -2.768989699999999843e+01 1.985999999999999918e-03 -4.951999999999999805e-03 1.794000000000000022e-03 1.409261200000000080e+01 2.791752999999999929e+00 -2.768995999999999924e+01 2.141999999999999807e-03 -3.343000000000000051e-03 2.511000000000000211e-03 1.409301899999999996e+01 2.790961999999999943e+00 -2.769059700000000035e+01 -1.409364000000000061e+01 -2.787640000000000118e+00 2.769114599999999982e+01 -1.409069099999999963e+01 -2.787598000000000020e+00 2.768612500000000054e+01 -1.409272400000000047e+01 -2.788479999999999848e+00 2.768964300000000023e+01 -1.409165999999999919e+01 -2.788085000000000147e+00 2.768773799999999952e+01 1.409453700000000076e+01 2.788390000000000146e+00 -2.769235899999999972e+01 1.409235699999999980e+01 2.792839999999999989e+00 -2.768890599999999935e+01 1.409172500000000028e+01 2.792057999999999929e+00 -2.768999399999999866e+01 1.409192700000000009e+01 2.790776000000000145e+00 -2.768988699999999881e+01 1.409199599999999997e+01 2.792599000000000053e+00 -2.769084700000000154e+01 3.013000000000000053e-03 -4.794999999999999783e-03 2.371999999999999977e-03 -1.409244200000000014e+01 -2.789553999999999867e+00 2.768943000000000154e+01 2.857999999999999863e-03 -2.406000000000000152e-03 -5.710000000000000015e-04 -1.409229400000000076e+01 -2.787692999999999977e+00 2.768693100000000129e+01 1.471000000000000085e-03 -9.340000000000000429e-04 1.755000000000000050e-03 -1.409223300000000023e+01 -2.788488000000000078e+00 2.768834100000000120e+01 6.710000000000000469e-04 -1.631000000000000071e-03 2.482999999999999964e-03 -1.409139099999999978e+01 -2.787675999999999821e+00 2.768621999999999872e+01 2.269999999999999882e-04 -3.327999999999999795e-03 4.179000000000000423e-03 1.409416599999999953e+01 2.788091999999999793e+00 -2.769251999999999825e+01 2.758000000000000035e-03 4.739999999999999747e-04 -2.296999999999999997e-03 3.750000000000000078e-04 -1.744000000000000107e-03 2.415000000000000046e-03 1.409344899999999967e+01 2.790901999999999994e+00 -2.769305299999999903e+01 1.409313000000000038e+01 2.793410000000000171e+00 -2.769032999999999944e+01 3.299999999999999982e-03 -5.590000000000000351e-04 -1.794000000000000022e-03 2.690999999999999816e-03 -2.856000000000000032e-03 8.530000000000000256e-04 1.409156300000000073e+01 2.792025999999999897e+00 -2.768904300000000163e+01 -1.409323200000000043e+01 -2.788326000000000082e+00 2.769040999999999997e+01 -1.409263900000000014e+01 -2.788641000000000147e+00 2.769034600000000168e+01 -1.409289200000000086e+01 -2.787336999999999954e+00 2.768793900000000008e+01 -1.409281400000000062e+01 -2.787660999999999945e+00 2.768834899999999877e+01 -1.409285299999999985e+01 -2.787214000000000080e+00 2.768758100000000155e+01 1.409353899999999982e+01 2.788250999999999813e+00 -2.769279900000000083e+01 2.687999999999999851e-03 -1.943999999999999981e-03 -5.439999999999999957e-04 9.470000000000000336e-04 -1.167999999999999984e-03 1.417000000000000074e-03 1.409382199999999941e+01 2.788330999999999893e+00 -2.769234200000000001e+01 1.409262799999999949e+01 2.791542000000000190e+00 -2.769042900000000174e+01 2.331999999999999872e-03 8.000000000000000654e-05 -1.248999999999999893e-03 1.299999999999999886e-04 -1.480999999999999895e-03 2.353000000000000057e-03 1.409225099999999919e+01 2.792987999999999804e+00 -2.769149499999999975e+01 -1.409266299999999994e+01 -2.787719000000000058e+00 2.768898300000000035e+01 -1.409323099999999940e+01 -2.787783999999999818e+00 2.768906499999999937e+01 -1.409249299999999927e+01 -2.787062999999999846e+00 2.768838999999999828e+01 -1.409079700000000024e+01 -2.787936000000000192e+00 2.768659399999999948e+01 -1.409382500000000071e+01 -2.787055000000000060e+00 2.769001599999999996e+01 1.409403299999999959e+01 2.788218999999999781e+00 -2.769281399999999849e+01 1.409437600000000046e+01 2.789438000000000084e+00 -2.769223500000000016e+01 1.409232300000000038e+01 2.791625999999999941e+00 -2.768970500000000001e+01 1.409179199999999987e+01 2.792377999999999805e+00 -2.768962199999999996e+01 -1.409376600000000046e+01 -2.786792999999999854e+00 2.768945899999999938e+01 2.415000000000000046e-03 -7.510000000000000399e-04 -7.510000000000000399e-04 -1.409243500000000004e+01 -2.788501000000000118e+00 2.768868000000000151e+01 1.008999999999999914e-03 -4.979999999999999618e-04 2.781000000000000052e-03 -1.409156899999999979e+01 -2.787659999999999805e+00 2.768859199999999987e+01 3.537000000000000213e-03 -1.448000000000000068e-03 -1.599999999999999928e-05 -1.409125900000000087e+01 -2.787634999999999863e+00 2.768729499999999888e+01 1.420999999999999954e-03 -2.563000000000000174e-03 3.325999999999999963e-03 -1.409256500000000045e+01 -2.787026000000000003e+00 2.768777599999999950e+01 1.409365299999999976e+01 2.787173000000000123e+00 -2.769038799999999867e+01 2.876999999999999783e-03 -3.912999999999999812e-03 -4.330000000000000081e-04 1.113000000000000057e-03 -4.808999999999999907e-03 2.485999999999999929e-03 1.409417099999999934e+01 2.788089999999999957e+00 -2.769267800000000079e+01 1.409150400000000047e+01 2.791631000000000196e+00 -2.768974100000000149e+01 3.259999999999999877e-03 -2.134000000000000046e-03 -5.039999999999999992e-04 2.651999999999999844e-03 -4.003999999999999747e-03 3.069000000000000113e-03 1.409242399999999940e+01 2.789330999999999783e+00 -2.769006299999999854e+01 -1.409063100000000013e+01 -2.788819999999999855e+00 2.768458299999999994e+01 -1.409275099999999981e+01 -2.788737999999999939e+00 2.768957500000000138e+01 -1.409149299999999982e+01 -2.788511999999999880e+00 2.768619299999999939e+01 -1.409106799999999993e+01 -2.789309999999999956e+00 2.768810799999999972e+01 -1.409166699999999928e+01 -2.787814000000000014e+00 2.768581700000000012e+01 1.409423199999999987e+01 2.789333000000000062e+00 -2.769239699999999971e+01 3.357999999999999874e-03 -6.319999999999999663e-04 -9.129999999999999661e-04 1.146000000000000100e-03 -2.230999999999999910e-03 2.379000000000000038e-03 1.409282900000000005e+01 2.790093999999999852e+00 -2.769297999999999860e+01 1.409197200000000016e+01 2.791565999999999992e+00 -2.769061900000000165e+01 2.508999999999999946e-03 -2.390999999999999896e-03 2.620000000000000258e-04 1.108000000000000044e-03 -4.270999999999999623e-03 2.743000000000000212e-03 1.409111500000000028e+01 2.791628999999999916e+00 -2.768957800000000091e+01 -1.409164400000000050e+01 -2.788168999999999897e+00 2.768769800000000103e+01 -1.409264800000000051e+01 -2.787621000000000127e+00 2.768899000000000044e+01 -1.409237399999999951e+01 -2.788180000000000103e+00 2.768766899999999964e+01 -1.409096899999999941e+01 -2.789655999999999914e+00 2.768599599999999938e+01 -1.409164400000000050e+01 -2.789102000000000192e+00 2.768684599999999918e+01 1.409326199999999929e+01 2.788543999999999912e+00 -2.769065000000000154e+01 1.409327099999999966e+01 2.790433000000000163e+00 -2.769256100000000131e+01 1.409154499999999999e+01 2.792942000000000036e+00 -2.768987100000000012e+01 1.409230400000000039e+01 2.790693000000000090e+00 -2.769037300000000101e+01 3.415000000000000067e-03 -3.213000000000000144e-03 -5.640000000000000482e-04 -1.409063899999999947e+01 -2.788841999999999821e+00 2.768678900000000098e+01 1.781999999999999947e-03 -2.932000000000000144e-03 2.896999999999999836e-03 -1.409208699999999936e+01 -2.789448999999999845e+00 2.768864299999999901e+01 3.504999999999999869e-03 -2.798999999999999839e-03 -1.554999999999999959e-03 -1.409199199999999941e+01 -2.788107000000000113e+00 2.768687500000000057e+01 -1.409341000000000044e+01 -2.788371999999999851e+00 2.768785199999999946e+01 2.064999999999999995e-03 -2.631000000000000092e-03 4.530000000000000064e-04 -1.409084000000000003e+01 -2.788873999999999853e+00 2.768609000000000009e+01 1.409324400000000033e+01 2.790767999999999915e+00 -2.769211400000000012e+01 4.017999999999999870e-03 -1.569000000000000082e-03 -1.605000000000000090e-03 1.409503800000000062e+01 2.789142000000000010e+00 -2.769304999999999950e+01 3.065000000000000016e-03 -1.000000000000000021e-03 -3.699999999999999947e-04 1.409344800000000042e+01 2.789432999999999829e+00 -2.769052999999999898e+01 3.005999999999999991e-03 -1.994999999999999812e-03 -8.779999999999999827e-04 3.132999999999999934e-03 -2.932000000000000144e-03 1.379999999999999933e-04 1.409387899999999938e+01 2.790849999999999831e+00 -2.769167399999999901e+01 1.409151300000000084e+01 2.792891000000000012e+00 -2.768963099999999855e+01 3.027999999999999876e-03 -1.655999999999999920e-03 -1.250999999999999942e-03 -1.409338699999999989e+01 -2.787368999999999986e+00 2.768957500000000138e+01 -1.409265800000000013e+01 -2.787082999999999977e+00 2.768823700000000088e+01 -1.409204100000000004e+01 -2.788330999999999893e+00 2.768876399999999904e+01 -1.409212699999999963e+01 -2.787030000000000118e+00 2.768644700000000114e+01 1.409442999999999913e+01 2.788142999999999816e+00 -2.769201400000000035e+01 3.103999999999999988e-03 -2.602000000000000146e-03 -1.018999999999999941e-03 1.409356499999999990e+01 2.787643000000000093e+00 -2.769250399999999956e+01 2.082000000000000083e-03 -1.330000000000000019e-03 1.589999999999999888e-04 1.409478299999999962e+01 2.789039999999999964e+00 -2.769286900000000173e+01 3.759000000000000188e-03 -6.920000000000000153e-04 -2.919999999999999853e-03 2.072000000000000057e-03 -2.667999999999999799e-03 5.649999999999999641e-04 1.409364500000000042e+01 2.789315999999999907e+00 -2.769326099999999968e+01 1.409215900000000055e+01 2.791640000000000121e+00 -2.769087199999999882e+01 2.798000000000000140e-03 -8.689999999999999808e-04 -9.569999999999999514e-04 -1.409333700000000000e+01 -2.787567000000000128e+00 2.768915900000000008e+01 -1.409188999999999936e+01 -2.788222000000000200e+00 2.768781600000000154e+01 -1.409307800000000022e+01 -2.787154999999999827e+00 2.769017200000000045e+01 -1.409322300000000006e+01 -2.786665000000000170e+00 2.768711700000000064e+01 1.409362999999999921e+01 2.788940999999999892e+00 -2.769217700000000093e+01 1.409304900000000060e+01 2.788419999999999899e+00 -2.769180599999999970e+01 1.409453099999999992e+01 2.789893000000000178e+00 -2.769247599999999920e+01 1.409263100000000080e+01 2.790966000000000058e+00 -2.769212999999999880e+01 1.409097299999999997e+01 2.792364000000000068e+00 -2.769027799999999928e+01 3.324999999999999831e-03 -6.179999999999999513e-04 -1.943000000000000066e-03 -1.409247200000000078e+01 -2.787533999999999956e+00 2.768914600000000092e+01 2.825999999999999953e-03 -1.606000000000000006e-03 -4.879999999999999898e-04 2.769000000000000194e-03 -8.679999999999999565e-04 5.439999999999999957e-04 -1.409098099999999931e+01 -2.787790000000000212e+00 2.768650299999999831e+01 1.603000000000000041e-03 -1.177000000000000095e-03 1.634999999999999952e-03 -1.409189699999999945e+01 -2.787469000000000197e+00 2.768852199999999897e+01 3.232000000000000064e-03 1.090000000000000067e-04 -6.499999999999999431e-05 -1.409209899999999926e+01 -2.786607000000000056e+00 2.768690700000000149e+01