9.167437481944233288e-04 -1.635889561123494151e-01 3.147356664244722619e-03 5.129083640981010233e-04 -2.199969096883080955e-03 2.208052078823697414e-03 -1.444083250846052782e-03 -1.322970244251338908e-03 2.018959954395195544e-03 -2.623156200209669775e-03 4.109057559453529671e-03 3.914834929138057140e-03 1.607859671564837488e-03 4.985048958190812021e-03 3.541994799685073934e-03 9.998898808411590261e-04 4.560376813166944795e-04 2.713034253268975255e-03 -3.783147100328164772e-03 4.444055391113705365e-03 3.697782943601722518e-03 2.058501166035170058e-04 1.305202716621334156e-05 3.681008200762553220e-03 3.573877626082665789e-03 4.619041067204944680e-03 3.094080046356258162e-03 6.871811573411840499e-06 1.044626218729513846e-06 3.148000267941818663e-03 2.687364945465744041e-05 -4.395604161524380030e-05 3.102001720400958569e-03 -4.212872405043690990e-05 -5.895516527486579486e-05 3.159999123274766838e-03 3.087413489218208295e-05 -2.039562573980290353e-04 3.087004151740461739e-03 -4.312507327832925747e-05 -7.695644049163772628e-05 3.069999337837321825e-03 4.874351988583725325e-06 1.250437771044994042e-04 3.087998428513222520e-03 -3.712408736383702274e-05 -6.595678545781232004e-05 3.045999426229341073e-03 2.087600970120753074e-05 -4.595685922919630898e-05 3.044001504485295290e-03 1.087420153749780208e-05 -6.695622757412172509e-05 3.088001394968914719e-03 1.531822151740471274e-03 -5.959394410134250799e-04 4.356070830241606448e-03 1.387317909651552541e-05 -1.111956158928785379e-03 3.093016332889643016e-03 -1.554179718100048542e-03 -6.469363866813550952e-04 4.400945888719165824e-03 3.387633216381092760e-05 1.249043371483823982e-03 3.060983673636866534e-03 4.079049420991374205e-04 1.124033083310131990e-03 2.356000676110984494e-03 -4.540943907645832276e-04 1.143033531406177205e-03 2.339965305374689785e-03 1.011897878430156623e-03 -1.445965631313835638e-03 2.480061708241899573e-03 -1.031104000769829214e-03 -1.247963322782881523e-03 2.529975708299421998e-03 1.387867717518527543e-05 2.111042805767238129e-03 3.019970638025849460e-03 1.273645692188370669e-02 1.723518380734749902e-02 1.366827429502156382e-02 -1.285956020804646278e-02 1.753720990280528344e-02 1.409422772203487717e-02 1.281366401272260411e-04 -2.320477375925401149e-04 -3.359991495366482315e-03 -1.674901750427820702e-03 1.128967412296031552e-03 -2.391084211897904956e-03 -2.304127544011780988e-04 4.140245884089865241e-02 -3.818259641368436375e-02 1.911118046404021746e-03 1.296957756579719722e-03 -2.873940568341067092e-03 -4.385542960506003514e-05 4.119950822908781743e-03 -3.471060200876298005e-03 -8.918715734257787837e-04 1.912956506051571469e-03 -3.117063442163150490e-03 9.441264820048738326e-04 1.511955635622869382e-03 -3.076982993434534096e-03 -2.889777496248581348e-03 -9.320754597213342253e-04 -5.482104464488117036e-03 -1.870500724906241615e-06 -9.504511216927637196e-05 -3.181998731596190864e-03 2.899227257803288580e-03 -9.390816512874326522e-04 -5.598868632127895935e-03 -1.307284448916143890e-05 4.060026479713599139e-03 1.866941907173698357e-03 -4.398934390406596335e-04 8.759634821620534495e-04 -2.600030334478332754e-03 4.601005499836018629e-04 8.969648757771097811e-04 -2.451993983582941190e-03 -2.187894867800165388e-05 -1.504213335818725149e-05 -2.973000680428576278e-03 1.121285441506882287e-06 -2.804223643256046711e-05 -2.978999559532497995e-03 2.817876375579725050e-05 1.549377800722234071e-04 -4.387001053291358053e-03 5.712740997610541598e-05 -7.044406951766723388e-06 -3.128997576758428458e-03 -4.687169251200974473e-05 -5.044637431866120721e-06 -3.151001840062020876e-03 -3.872743453779380605e-06 4.955697520970503401e-06 -3.125000230867226985e-03 -3.987704181077198520e-05 2.795722855282195229e-05 -3.019002023004964050e-03 2.112592608349583731e-05 7.395615998415296804e-05 -3.091000191143234484e-03 3.112578980835904507e-05 5.595619468939209431e-05 -3.087999528737769839e-03 -1.587186709973955188e-05 1.359554375256061536e-04 -3.144002576786792281e-03 -1.874490508709917466e-06 6.195631977222791729e-05 -3.081000957598944556e-03 2.412420640284531720e-05 6.195675310377948049e-05 -3.048999898886562560e-03 -3.461826815202469345e-05 1.355921898712655546e-02 1.544380636483949285e-02 5.280132812741720593e-04 9.439952197218917131e-04 -3.079918829130071632e-04 -5.169953976416338326e-04 9.879990719966467473e-04 -9.403506022295063968e-05 -8.275673265236767329e-03 -9.561075376577487118e-04 -8.042323444346136802e-03 8.387323522877285220e-03 -7.761194221616213350e-04 -7.959647464877631431e-03 -1.009750688504827844e-04 -5.590087536275459464e-04 -6.229961868570448209e-04 7.339827893229817525e-04 -1.695995045208010567e-03 3.900539342290165897e-04 -4.017816060326256884e-06 1.810062555214929565e-04 4.409972705314550863e-04 -7.120099306337990741e-04 -1.708996450819628542e-03 2.109952363556251572e-04 -1.430974160977986805e-03 9.619923868485747136e-04 -6.160719099737707507e-04 1.450016630588374638e-03 9.579933352188048368e-04 -3.899545367007391087e-04 -2.178119559183509373e-05 2.355593026009801527e-02 -4.920334862681333653e-03 6.169879388500425048e-03 1.331504079171689191e-02 3.218062467739376143e-03 1.349384604215458341e-04 -1.831979179093838573e-03 1.476031469605485619e-03 -6.314104147375407088e-03 1.373404495219169956e-02 2.821548168519264193e-03 1.459469649967708204e-04 3.461019294735505174e-03 1.368956874732282867e-03 1.913019423861999713e-03 1.716992207014119039e-03 -4.439464438189453751e-04 -2.059984100692959560e-03 1.683996537151574626e-03 -3.581077599741827383e-04 -1.600441037462661906e-05 -1.599845626854929111e-05 1.079995752102009838e-04 -4.599953014251246771e-05 -7.600014828585488567e-05 -1.300079563704307698e-05 5.499839697870761469e-05 3.300052404369917773e-05 4.000177174343306688e-05 -5.998374320698410057e-06 -5.600057658598751138e-05 -4.099945033223899971e-05 1.800436416711339831e-05 8.998468881058026408e-06 -1.069993945250840802e-04 -1.500063741667641276e-05 1.800023858785354530e-05 1.599913397261726493e-05 -4.899750577668204990e-05 6.499918769253709597e-05 -6.000291682055418048e-05 -4.700446749981713719e-05 1.500159635679711262e-05 1.099978733512896952e-04 9.099908139237585848e-05 7.500026900687765279e-05 2.400264224288121336e-05 -1.065113264009016902e-02 1.725540739957564726e-02 2.814632165946157408e-02 -2.272811122112729232e-03 -2.147158702164007091e-04 1.991491051193245571e-02 1.293781077662270983e-02 1.699240855157461982e-02 2.953128595108379592e-02 8.429455338684731930e-04 4.128702956283174935e-02 2.131448968375317631e-03 1.671050265066902985e-03 5.247330790980058064e-03 2.342399367276324154e-02 -2.490799130474735321e-03 1.317280543206546901e-03 1.964987991469962711e-02 -9.898984072765181896e-04 2.803136499430465100e-04 2.206795573679009789e-02 3.881501866212961911e-04 2.326296209592234026e-03 2.091398284349163875e-02 5.960773833874595615e-04 4.620322020218878278e-03 2.274595878793625112e-02 6.915193913353779795e-05 4.129522613016560121e-05 2.082700224981052714e-02 -4.885399506618713736e-05 3.297374307870503858e-06 2.097199798337031837e-02 -1.184631680535903890e-05 1.362947082536672416e-04 2.078599760457217407e-02 -8.586806958322833791e-05 -2.969770537854463720e-05 2.131699694424430899e-02 -1.084651032385843539e-05 -5.870527833187530312e-05 2.078700040995597187e-02 1.121527613004460571e-04 -5.270511944069081531e-05 2.080500533353734499e-02 3.014771681064298185e-05 2.132967736737799880e-04 2.093399822302255409e-02 -2.985607101125019774e-05 1.082981108435125765e-04 2.102499726835205598e-02 2.312859442672402242e-05 1.303034143713503994e-04 2.140199911429591095e-02 -4.568542447718308697e-04 1.139298090634050355e-03 2.099996526329773669e-02 4.271404795915416711e-04 1.163299241576426415e-03 2.113000092014295089e-02 2.817181740590721435e-05 4.652884528484896179e-04 2.034699456933013184e-02 7.153145847320752043e-06 -1.337051931736777321e-04 2.079400220625704510e-02 6.013655075621477200e-05 4.103006915911464373e-04 2.121199665137025667e-02 -6.384433958816647294e-05 -1.467060166029526022e-04 2.073199949944517714e-02 -6.188560155435910847e-05 -1.616916560607297977e-04 2.174499979261164742e-02 1.148126352289454083e-03 -1.482697126069627228e-03 2.142606779396357894e-02 -1.127876764063914230e-03 -1.408694238109798420e-03 2.150397406407943135e-02 -8.596644607214848084e-05 -2.835360557996392458e-03 -2.543596332510935157e-02 -4.793263601978598452e-04 -1.303432697122012540e-01 -1.904917155607515136e-02 5.420052512807158789e-04 -1.953350955216595890e-03 -2.472395025786410308e-02 -1.246095413847589893e-03 1.314686385162324800e-03 -2.218906940203344350e-02 -4.236248362522450177e-03 8.325743891415800582e-03 -1.829829056129501572e-02 5.491713871887499328e-03 8.521749473936919561e-03 -1.736689720856245123e-02 6.031851835212727504e-03 8.523701016748104486e-03 -2.075487524450889479e-02 -5.614140639410993006e-03 7.669707285870560297e-03 -2.095633737154414811e-02 -4.071408470974191281e-04 1.641701635681982281e-03 -2.106703987441101850e-02 -1.141089115375337003e-06 -1.005299319948400535e-03 -2.111198581316373404e-02 1.524790405537365234e-03 -7.602765968844554323e-04 -1.942492714826521416e-02 -1.520213865199648330e-03 -6.012726814752903954e-04 -1.931705339762165158e-02 -1.007101377092492695e-03 -1.514312497331387307e-03 -2.209701956094269754e-02 1.041899258687146784e-03 -1.428314300188315801e-03 -2.211093734319340490e-02 -4.113374531992373972e-05 2.078698995547304234e-03 -2.123303116610783178e-02 5.639093144872626452e-04 1.218683294969107869e-03 -2.230699433611793570e-02 -4.112954596310792619e-05 1.305697322645378708e-03 -2.135102020658697849e-02 -5.230953871220993560e-04 1.141685762362363047e-03 -2.219303750810128900e-02 1.185315874001707376e-05 -3.129706177828274786e-05 -2.095199909308302286e-02 -4.915006841714970106e-05 -2.002959364860325124e-04 -2.087599918108356406e-02 3.185105769479171738e-05 -1.029634019496402250e-05 -2.089999857644737197e-02 -2.314509339410869982e-05 -8.729765819076782643e-05 -2.099599972431715963e-02 2.846812540046477295e-06 -7.529485716860034156e-05 -2.079699883589317816e-02 -1.015480139487552241e-05 -5.629427987975120414e-05 -2.075699963467893608e-02 3.085748926260376506e-05 3.870143466922034336e-05 -2.105699931173268813e-02 -4.114135646478029196e-05 -9.929894845280069662e-05 -2.108800028707379093e-02 2.852391295128037367e-06 -7.529679952656510378e-05 -2.093399883576582687e-02
9.227441875743226923e-04 -1.634439562304843552e-01 3.139354852801563324e-03 5.099086851658683750e-04 -2.205969207955850355e-03 2.200052041735161851e-03 -1.455083012780477008e-03 -1.330970320704346873e-03 2.012959619893518824e-03 -2.622156361526712266e-03 4.111057615381513534e-03 3.918834941499662466e-03 1.610859507111842177e-03 4.983049012553206550e-03 3.545994950199435856e-03 9.958896717552623290e-04 4.490377553383616315e-04 2.718034189625266692e-03 -3.786147411988073988e-03 4.462055506883241471e-03 3.705782566231990028e-03 1.998498393983481826e-04 2.305213110774970652e-05 3.688007814653304541e-03 3.578876983164387508e-03 4.630041290133580026e-03 3.110080093990242114e-03 7.871772418889403508e-06 3.044639613327098346e-06 3.149000280306213026e-03 2.587324224708672721e-05 -4.395589905429400656e-05 3.112001679670811476e-03 -4.212887909806208682e-05 -4.895510856469246136e-05 3.163998981493413784e-03 2.687421712075318717e-05 -2.029562826217359503e-04 3.085003974681152852e-03 -4.312536145850328349e-05 -8.095634124666693950e-05 3.076999394541868327e-03 7.874473365042070855e-06 1.240437322222256739e-04 3.084998564856328198e-03 -3.512409049978976850e-05 -6.995678702340137078e-05 3.045999564382096802e-03 1.287572544553613808e-05 -4.495675372076032584e-05 3.051001164534215913e-03 1.587407780368379131e-05 -6.895618895551479063e-05 3.091001626925908661e-03 1.524819948903048759e-03 -6.009386699309983426e-04 4.410070616034267310e-03 2.287151031818394575e-05 -1.110955584686241756e-03 3.134016685161426612e-03 -1.556181511382497126e-03 -6.489357612921651652e-04 4.444945835592088203e-03 2.787410035832156875e-05 1.259044155959537564e-03 3.115983287482997164e-03 4.139034056722693477e-04 1.138033617366967544e-03 2.394000721912077721e-03 -4.500961754326999239e-04 1.152034152096281230e-03 2.383965340617320416e-03 1.006896074963740907e-03 -1.460965003574346815e-03 2.524061717263193904e-03 -1.030105513710327008e-03 -1.255962798986642696e-03 2.566975862407985289e-03 1.287713370196167641e-05 2.116043345305953713e-03 3.057970526380856136e-03 1.274745710669799963e-02 1.726318374202054015e-02 1.366427434597726823e-02 -1.287556022838112074e-02 1.756320992950839363e-02 1.409522670187847958e-02 1.321382760096702933e-04 -2.230483078372465754e-04 -3.399991460045764715e-03 -1.675900240621616948e-03 1.132966888500195951e-03 -2.428084309295414859e-03 -2.324118201709194829e-04 4.139945851637565066e-02 -3.820559645257139841e-02 1.915119516268812272e-03 1.301957243046597892e-03 -2.909940476313014387e-03 -4.985400201996277039e-05 4.122950331383617821e-03 -3.506060487702159119e-03 -8.958700683185277010e-04 1.910955984605329332e-03 -3.154063576656632954e-03 9.551281539009112958e-04 1.514955045719999088e-03 -3.117982588000348543e-03 -2.898776810255424864e-03 -9.400756936960835003e-04 -5.499104717537867115e-03 5.130105380447206132e-06 -1.010453303165750422e-04 -3.196998361469708273e-03 2.902227861561238863e-03 -9.480818663024443088e-04 -5.613868382351527332e-03 -1.307287659069309213e-05 4.071026493890284731e-03 1.867941751217370777e-03 -4.388930639346206057e-04 8.869633537777899934e-04 -2.609030449704513675e-03 4.591005163157525683e-04 9.059648907369940258e-04 -2.450994151904593247e-03 -2.787883042837264924e-05 -2.004217119309235131e-05 -2.976000853862076877e-03 9.121453019672648955e-06 -2.204229940831603502e-05 -2.982999318828551735e-03 2.917917096336796709e-05 1.549376375112736270e-04 -4.397001012561210960e-03 6.512724786968365591e-05 -6.044356504655329776e-06 -3.124997265173101810e-03 -4.687185539536979021e-05 -5.044580720684668056e-06 -3.147001840065739159e-03 -9.873113070657031331e-06 9.558298195089538102e-07 -3.116000418489645995e-03 -3.887733155892238071e-05 2.195732701499821031e-05 -3.012001897224039250e-03 2.312543508103644127e-05 7.095632855200744848e-05 -3.079000067179397167e-03 2.412541549086986254e-05 4.595632777153157414e-05 -3.078999672014459503e-03 -8.872019018876580940e-06 1.499554887544031706e-04 -3.140002490233240965e-03 -1.875057466176128354e-06 6.595651826095977224e-05 -3.067001014323012583e-03 1.812392136194163563e-05 6.195685704632396631e-05 -3.042000143218176467e-03 -3.361934572543939738e-05 1.348321934079610603e-02 1.546880748304712769e-02 5.310099836672164042e-04 9.449963657742268012e-04 -2.269917750035147148e-04 -5.079996976030963550e-04 1.009000567793872814e-03 1.196500843313916941e-05 -8.239680087561982932e-03 -9.321051839784089176e-04 -7.874322318817992411e-03 8.325316442203987977e-03 -7.701169066800712427e-04 -7.785650074798731307e-03 -8.397942756161076716e-05 -5.610072499141750520e-04 -5.159954663465158697e-04 7.269797712851858856e-04 -1.701993990569575753e-03 4.640537341808493319e-04 -1.402002594742168754e-05 1.670070289538154690e-04 4.949970617614341331e-04 -7.030133504082509716e-04 -1.707995266931884495e-03 2.949955885874354540e-04 -1.426966625275181890e-03 9.649897608241455194e-04 -8.010717894516808813e-04 1.434022488917592467e-03 9.509913061449166982e-04 -5.339550888561505389e-04 -6.777589546649236464e-06 2.337692894401394161e-02 -5.012331713963383284e-03 6.129888569453423655e-03 1.318303759051270285e-02 2.990062710582057533e-03 1.319463712370250619e-04 -1.817981927238561521e-03 1.282031149134585640e-03 -6.262096512323489170e-03 1.360404221770788492e-02 2.631552129289396573e-03 1.469529039699952111e-04 3.453017223995192252e-03 1.222957029010962897e-03 1.908023448960720174e-03 1.708990807328165549e-03 -5.429465339090629996e-04 -2.052979705982337609e-03 1.679995000469105756e-03 -4.661074181167744945e-04 -2.000378077792647856e-05 -4.399867997846775979e-05 9.199980931904717474e-05 -2.599958655141022153e-05 -9.600014976596640880e-05 -1.199969766568100090e-05 4.199988093693910742e-05 4.000009647144294371e-06 3.001653561904234341e-06 -1.399844086784697683e-05 -3.700054196834295754e-05 -3.900004547841300664e-05 2.600376980292125537e-05 2.999867528190218669e-05 -9.199936650525192662e-05 -1.400108064530501452e-05 2.400039376000151706e-05 2.699908961666199522e-05 -4.699770468109998225e-05 7.099925701491674359e-05 -5.500292045008074439e-05 -3.900323491122318351e-05 2.900116475755560639e-05 7.999800065729804357e-05 8.199998822834951985e-05 8.899996414093372247e-05 2.002077286983785828e-06 -1.049412256184995354e-02 1.717740374638207154e-02 2.789732915873222030e-02 -2.305801670907628182e-03 -1.577191194540027456e-04 1.968390836022658810e-02 1.283181892163721971e-02 1.694140578484049087e-02 2.933028235792635788e-02 8.569449667245262765e-04 4.092702965115066482e-02 2.138454642455573686e-03 1.676057437340668782e-03 5.098328249254728030e-03 2.324499598902065103e-02 -2.509791538410506648e-03 1.236277892666111204e-03 1.946188028957705762e-02 -9.858931793158632120e-04 3.523118462237923281e-04 2.194095487899258914e-02 3.641542289743917443e-04 2.340294824780989741e-03 2.081498166779455553e-02 6.190818884937284100e-04 4.601320428476596107e-03 2.263495999399652014e-02 3.315717097029221905e-05 -3.770658878740590331e-05 2.069700190402405313e-02 -3.284894415313046874e-05 -4.670441043944781518e-05 2.084699934390830955e-02 3.159332383951405852e-06 7.029271162402761942e-05 2.064599915124747456e-02 -9.686386514112842530e-05 -1.669915707981988213e-05 2.121399631209977196e-02 1.215802693390466049e-05 1.529314409426310307e-05 2.067700029748330628e-02 9.315748417505381230e-05 -1.706735015372009635e-06 2.069000383688214192e-02 -1.684665740586574852e-05 2.212948539380326979e-04 2.079599619584872675e-02 1.114972776906924620e-05 1.292960654916115542e-04 2.088299864030592271e-02 1.313515989314169943e-05 1.423011395750487624e-04 2.124099853710390354e-02 -4.868483684088114444e-04 1.155296072519789753e-03 2.085596381496184967e-02 4.421462188668217794e-04 1.160297230762640137e-03 2.098900157362008217e-02 4.417741181918811299e-05 4.852864979605701055e-04 2.020999493743583231e-02 6.161502239660844490e-06 -1.227080988398399498e-04 2.058900200977136288e-02 3.914297137058600999e-05 4.452984821166652255e-04 2.105499530015660786e-02 -4.183761831709093421e-05 -1.437083731654054098e-04 2.056700035292399059e-02 -2.187916380192719357e-05 -2.086939416453006903e-04 2.158600208794838118e-02 1.151133014049684307e-03 -1.503699453574938293e-03 2.126206821401161948e-02 -1.143871071752350669e-03 -1.419696210472101575e-03 2.136397356863135866e-02 -3.697876807226931002e-05 -2.814356300493326465e-03 -2.513296162780234710e-02 -4.603398009003590381e-04 -1.296712648641621113e-01 -1.870618031015488028e-02 4.999897922842424982e-04 -1.934345534770434607e-03 -2.434395223787060372e-02 -1.231106969984267210e-03 1.273690385737603599e-03 -2.190606821019544861e-02 -4.203259275001333325e-03 8.222747636880876898e-03 -1.803228775744456641e-02 5.438702618041755046e-03 8.398753400164044383e-03 -1.709289762315736524e-02 6.028840367609802561e-03 8.543705017233366172e-03 -2.047287565048886565e-02 -5.609153930055474011e-03 7.701711918091437049e-03 -2.062933762193230533e-02 -4.161509575868982901e-04 1.678705172996263102e-03 -2.081804076570739626e-02 -1.514345852694081553e-07 -1.060295733743625048e-03 -2.085898499290108135e-02 1.482781473603914839e-03 -7.782734590596178002e-04 -1.920592860354480153e-02 -1.482222474567024403e-03 -6.232697197121048801e-04 -1.910605153851465884e-02 -1.042110858725617045e-03 -1.454309152328455606e-03 -2.186302183705582380e-02 1.077888557720654969e-03 -1.365310585444552433e-03 -2.184693677068727524e-02 -3.614402964942209617e-05 2.153702592784785194e-03 -2.097903202607195525e-02 5.068972274722351352e-04 1.175687536231651009e-03 -2.201099604783778030e-02 -2.913933778042715033e-05 1.281700715922731455e-03 -2.111101937789354802e-02 -4.781077537825913801e-04 1.105690023003160242e-03 -2.189003516554516998e-02 -3.514922337765112533e-05 -5.296188490158088291e-06 -2.089300137563972204e-02 -2.815204573353746503e-05 -1.772952582192976448e-04 -2.082699865207980269e-02 5.984914692638191816e-05 -6.295695762877561080e-06 -2.085299749301828751e-02 -5.149216400334383155e-06 -1.002962403260564085e-04 -2.089499880712480245e-02 -1.568264751412729262e-07 -4.229357882135596091e-05 -2.070699942600559215e-02 -6.158167907164786359e-06 -3.929310625643447598e-05 -2.067399971289466537e-02 2.685558868220879047e-05 3.702089983320080910e-06 -2.101099897843713288e-02 -1.614370499846799485e-05 -1.342981598898404971e-04 -2.103099877288377995e-02 -1.215014043667305204e-05 -8.429590875740292501e-05 -2.087199931903635855e-02