-1.412879985649999981e+03
-1.412879987060000076e+03
-1.412879989669999986e+03
-1.412879992449999918e+03
-1.412879998160000014e+03
