1.910290000000000044e+00 3.257929999999999993e+00 3.699019999999999975e+00 7.142280000000000406e+00 3.708680000000000199e+00 1.724620000000000042e+00 1.438989999999999991e+00 1.223929999999999962e+00 1.724630000000000107e+00 4.100999999999999979e+00 3.257940000000000058e+00 3.699019999999999975e+00 2.760839999999999961e+00 3.708660000000000068e+00 1.724630000000000107e+00 3.629690000000000083e+00 1.223940000000000028e+00 1.724630000000000107e+00 6.291719999999999757e+00 3.257940000000000058e+00 3.699019999999999975e+00 4.951559999999999739e+00 3.708660000000000068e+00 1.724620000000000042e+00 5.820429999999999993e+00 1.223929999999999962e+00 1.724630000000000107e+00 1.041430000000000078e+00 5.742689999999999628e+00 3.699040000000000106e+00 2.363290000000000113e+00 8.227389999999999759e+00 3.699019999999999975e+00 1.892009999999999970e+00 6.193389999999999951e+00 1.724630000000000107e+00 3.232149999999999856e+00 5.742670000000000385e+00 3.699050000000000171e+00 4.554020000000000401e+00 8.227399999999999380e+00 3.699030000000000040e+00 4.082720000000000127e+00 6.193389999999999951e+00 1.724630000000000107e+00 5.422869999999999635e+00 5.742680000000000007e+00 3.699040000000000106e+00 6.744749999999999801e+00 8.227389999999999759e+00 3.699030000000000040e+00 6.273450000000000415e+00 6.193399999999999572e+00 1.724630000000000107e+00 8.002010000000000289e+00 4.882229999999999848e+00 7.169609999999999594e+00 2.298729999999999940e+00 2.397510000000000030e+00 7.169620000000000104e+00 3.620559999999999778e+00 4.882240000000000357e+00 7.169599999999999973e+00 4.489449999999999719e+00 2.397499999999999964e+00 7.169629999999999725e+00 5.811289999999999623e+00 4.882240000000000357e+00 7.169609999999999594e+00 6.680159999999999876e+00 2.397520000000000095e+00 7.169620000000000104e+00 2.751739999999999853e+00 7.366970000000000240e+00 7.169620000000000104e+00 4.942450000000000010e+00 7.366970000000000240e+00 7.169620000000000104e+00 7.133180000000000298e+00 7.366979999999999862e+00 7.169620000000000104e+00 2.770030000000000214e+00 4.431510000000000282e+00 9.144009999999999749e+00 4.960740000000000371e+00 4.431499999999999773e+00 9.144030000000000769e+00 7.151449999999999640e+00 4.431499999999999773e+00 9.144009999999999749e+00 1.901159999999999961e+00 6.916249999999999787e+00 9.144030000000000769e+00 3.223030000000000062e+00 9.400969999999999160e+00 9.144030000000000769e+00 4.091899999999999871e+00 6.916249999999999787e+00 9.144030000000000769e+00 5.413759999999999906e+00 9.400959999999999539e+00 9.144019999999999371e+00 6.282600000000000406e+00 6.916240000000000165e+00 9.144030000000000769e+00 7.604490000000000194e+00 9.400969999999999160e+00 9.144009999999999749e+00 3.629750000000000032e+00 5.605070000000000441e+00 1.458900000000000041e+01 8.861750000000000682e+00 6.055810000000000137e+00 1.261461000000000077e+01 3.158459999999999823e+00 3.571089999999999876e+00 1.261459999999999937e+01 5.820470000000000255e+00 5.605070000000000441e+00 1.458901999999999965e+01 4.480310000000000237e+00 6.055819999999999759e+00 1.261461000000000077e+01 5.349179999999999602e+00 3.571089999999999876e+00 1.261461000000000077e+01 8.011200000000000543e+00 5.605070000000000441e+00 1.458901000000000003e+01 6.671020000000000394e+00 6.055819999999999759e+00 1.261458999999999975e+01 7.539889999999999759e+00 3.571089999999999876e+00 1.261459999999999937e+01 2.760899999999999910e+00 8.089829999999999188e+00 1.458901000000000003e+01 4.082779999999999632e+00 1.057452999999999932e+01 1.458900000000000041e+01 3.611470000000000180e+00 8.540540000000000020e+00 1.261461000000000077e+01 4.951629999999999754e+00 8.089809999999999945e+00 1.458901999999999965e+01 6.273500000000000298e+00 1.057452999999999932e+01 1.458901000000000003e+01 5.802190000000000403e+00 8.540549999999999642e+00 1.261461000000000077e+01 7.142350000000000421e+00 8.089829999999999188e+00 1.458901999999999965e+01 8.464209999999999567e+00 1.057454000000000072e+01 1.458900000000000041e+01 7.992919999999999803e+00 8.540540000000000020e+00 1.261461000000000077e+01 1.947470000000000034e+00 1.568158999999999992e+01 3.699040000000000106e+00 4.138180000000000192e+00 1.568160999999999916e+01 3.699040000000000106e+00 6.328909999999999592e+00 1.568159999999999954e+01 3.699040000000000106e+00 7.595290000000000319e+00 8.678129999999999455e+00 1.724630000000000107e+00 3.213849999999999874e+00 8.678129999999999455e+00 1.724630000000000107e+00 5.404569999999999652e+00 8.678140000000000853e+00 1.724620000000000042e+00 1.494450000000000056e+00 1.071213000000000015e+01 3.699040000000000106e+00 2.816329999999999778e+00 1.319684999999999953e+01 3.699030000000000040e+00 8.048310000000000741e+00 1.364758999999999922e+01 1.724630000000000107e+00 2.345019999999999882e+00 1.116286000000000023e+01 1.724639999999999951e+00 3.685179999999999900e+00 1.071214999999999939e+01 3.699040000000000106e+00 5.007049999999999557e+00 1.319684999999999953e+01 3.699019999999999975e+00 3.666869999999999852e+00 1.364760000000000062e+01 1.724609999999999976e+00 4.535750000000000171e+00 1.116286999999999985e+01 1.724620000000000042e+00 5.875890000000000057e+00 1.071214999999999939e+01 3.699040000000000106e+00 7.197759999999999714e+00 1.319683999999999990e+01 3.699040000000000106e+00 5.857590000000000074e+00 1.364758999999999922e+01 1.724620000000000042e+00 6.726460000000000328e+00 1.116286000000000023e+01 1.724620000000000042e+00 8.455040000000000333e+00 9.851710000000000633e+00 7.169620000000000104e+00 4.073599999999999888e+00 9.851699999999999235e+00 7.169609999999999594e+00 6.264310000000000045e+00 9.851699999999999235e+00 7.169609999999999594e+00 8.908039999999999736e+00 1.482117000000000040e+01 7.169609999999999594e+00 3.204769999999999897e+00 1.233643999999999963e+01 7.169609999999999594e+00 4.526620000000000310e+00 1.482117000000000040e+01 7.169609999999999594e+00 5.395480000000000054e+00 1.233643000000000001e+01 7.169620000000000104e+00 6.717329999999999579e+00 1.482116000000000078e+01 7.169609999999999594e+00 7.586190000000000211e+00 1.233643000000000001e+01 7.169609999999999594e+00 2.807209999999999983e+00 1.685517000000000110e+01 9.144030000000000769e+00 4.997919999999999696e+00 1.685518000000000072e+01 9.144019999999999371e+00 7.188640000000000363e+00 1.685518000000000072e+01 9.144040000000000390e+00 2.354190000000000005e+00 1.188571999999999917e+01 9.144030000000000769e+00 3.676050000000000040e+00 1.437044000000000032e+01 9.144030000000000769e+00 4.544909999999999783e+00 1.188570999999999955e+01 9.144040000000000390e+00 5.866780000000000328e+00 1.437041999999999931e+01 9.144030000000000769e+00 6.735619999999999941e+00 1.188570999999999955e+01 9.144040000000000390e+00 8.057510000000000616e+00 1.437041999999999931e+01 9.144030000000000769e+00 3.666929999999999801e+00 1.802874999999999872e+01 1.458901000000000003e+01 5.857660000000000089e+00 1.802873999999999910e+01 1.458901000000000003e+01 8.048370000000000246e+00 1.802874999999999872e+01 1.458901000000000003e+01 9.314769999999999328e+00 1.102527000000000079e+01 1.261461000000000077e+01 4.933329999999999771e+00 1.102528000000000041e+01 1.261458999999999975e+01 7.124050000000000438e+00 1.102528000000000041e+01 1.261461000000000077e+01 3.213919999999999888e+00 1.305927999999999933e+01 1.458901999999999965e+01 4.535800000000000054e+00 1.554399000000000086e+01 1.458901000000000003e+01 9.767770000000000508e+00 1.599473000000000056e+01 1.261458999999999975e+01 4.064499999999999780e+00 1.351000999999999941e+01 1.261459999999999937e+01 5.404639999999999667e+00 1.305929000000000073e+01 1.458902999999999928e+01 6.726510000000000211e+00 1.554400000000000048e+01 1.458900000000000041e+01 5.386350000000000193e+00 1.599473000000000056e+01 1.261459999999999937e+01 6.255219999999999558e+00 1.350999999999999979e+01 1.261461000000000077e+01 7.595349999999999824e+00 1.305929000000000073e+01 1.458901000000000003e+01 8.917229999999999990e+00 1.554400000000000048e+01 1.458901000000000003e+01 7.577060000000000350e+00 1.599474000000000018e+01 1.261461000000000077e+01 8.445930000000000604e+00 1.351000999999999941e+01 1.261461000000000077e+01 5.792500000000000426e-01 2.240940000000000154e+00 2.711819999999999897e+00 7.575020000000000309e+00 4.316550000000000331e+00 4.612269999999999648e+00 1.477600000000000025e+00 2.650059999999999860e+00 8.114299999999999846e-01 5.849920000000000009e+00 6.308340000000000281e+00 6.256409999999999805e+00 1.901140000000000052e+00 4.725679999999999659e+00 2.711860000000000159e+00 1.871720000000000050e+00 1.831830000000000069e+00 4.612289999999999779e+00 2.769969999999999821e+00 2.240930000000000089e+00 2.711819999999999897e+00 3.193579999999999863e+00 4.316559999999999953e+00 4.612280000000000157e+00 3.668320000000000025e+00 2.650040000000000173e+00 8.114200000000000301e-01 6.273450000000000415e+00 8.383969999999999700e+00 8.156810000000000116e+00 4.091870000000000118e+00 4.725679999999999659e+00 2.711860000000000159e+00 4.062439999999999607e+00 1.831839999999999913e+00 4.612289999999999779e+00 4.960700000000000109e+00 2.240930000000000089e+00 2.711829999999999963e+00 5.384299999999999642e+00 4.316550000000000331e+00 4.612269999999999648e+00 5.859029999999999738e+00 2.650059999999999860e+00 8.114200000000000301e-01 3.659190000000000165e+00 6.308349999999999902e+00 6.256409999999999805e+00 6.282580000000000275e+00 4.725679999999999659e+00 2.711850000000000094e+00 6.253149999999999764e+00 1.831830000000000069e+00 4.612280000000000157e+00 1.032270000000000021e+00 7.210399999999999920e+00 2.711829999999999963e+00 6.087399999999999478e-01 5.134769999999999612e+00 8.114299999999999846e-01 2.324749999999999872e+00 6.801289999999999836e+00 4.612300000000000288e+00 3.222989999999999799e+00 7.210390000000000299e+00 2.711819999999999897e+00 2.799469999999999903e+00 5.134780000000000122e+00 8.114299999999999846e-01 4.515469999999999651e+00 6.801289999999999836e+00 4.612300000000000288e+00 5.413710000000000022e+00 7.210399999999999920e+00 2.711829999999999963e+00 4.990179999999999616e+00 5.134769999999999612e+00 8.114400000000000501e-01 6.706179999999999808e+00 6.801289999999999836e+00 4.612289999999999779e+00 1.439000000000000057e+00 3.414509999999999934e+00 8.156819999999999737e+00 2.337320000000000064e+00 3.823630000000000084e+00 6.256409999999999805e+00 4.082720000000000127e+00 8.383969999999999700e+00 8.156819999999999737e+00 2.760870000000000157e+00 5.899239999999999817e+00 8.156850000000000378e+00 3.629710000000000214e+00 3.414509999999999934e+00 8.156810000000000116e+00 4.528039999999999843e+00 3.823609999999999953e+00 6.256420000000000314e+00 1.468480000000000008e+00 6.308340000000000281e+00 6.256409999999999805e+00 4.951590000000000380e+00 5.899250000000000327e+00 8.156829999999999359e+00 5.820439999999999614e+00 3.414499999999999869e+00 8.156829999999999359e+00 6.718770000000000131e+00 3.823620000000000019e+00 6.256420000000000314e+00 1.892009999999999970e+00 8.383979999999999322e+00 8.156829999999999359e+00 7.142310000000000159e+00 5.899250000000000327e+00 8.156840000000000757e+00 1.930609999999999937e+00 7.619519999999999627e+00 8.114200000000000301e-01 4.121319999999999872e+00 7.619510000000000005e+00 8.114299999999999846e-01 6.312039999999999651e+00 7.619510000000000005e+00 8.114200000000000301e-01 2.790350000000000108e+00 8.793079999999999785e+00 6.256409999999999805e+00 4.981069999999999887e+00 8.793079999999999785e+00 6.256409999999999805e+00 7.171780000000000044e+00 8.793079999999999785e+00 6.256409999999999805e+00 8.434749999999999304e+00 5.490120000000000111e+00 1.005725999999999942e+01 2.731450000000000156e+00 3.005409999999999915e+00 1.005728000000000044e+01 4.053309999999999746e+00 5.490129999999999733e+00 1.005725999999999942e+01 4.922180000000000000e+00 3.005399999999999849e+00 1.005727000000000082e+01 6.244040000000000035e+00 5.490120000000000111e+00 1.005727000000000082e+01 7.112890000000000157e+00 3.005409999999999915e+00 1.005729000000000006e+01 3.184489999999999821e+00 7.974870000000000125e+00 1.005728000000000044e+01 5.375210000000000043e+00 7.974849999999999994e+00 1.005727000000000082e+01 7.565920000000000201e+00 7.974859999999999616e+00 1.005728000000000044e+01 2.298719999999999875e+00 4.588090000000000224e+00 1.360181000000000040e+01 9.294499999999999318e+00 6.663689999999999891e+00 1.550225999999999971e+01 3.197060000000000013e+00 4.997189999999999799e+00 1.170138999999999996e+01 8.425639999999999574e+00 9.148429999999999396e+00 1.550225999999999971e+01 3.620610000000000106e+00 7.072820000000000107e+00 1.360182999999999964e+01 3.591190000000000104e+00 4.178969999999999629e+00 1.550226999999999933e+01 4.489440000000000097e+00 4.588090000000000224e+00 1.360182000000000002e+01 4.913050000000000139e+00 6.663689999999999891e+00 1.550225000000000009e+01 5.387789999999999857e+00 4.997200000000000308e+00 1.170139999999999958e+01 6.709660000000000402e+00 7.481919999999999682e+00 1.170139999999999958e+01 5.811329999999999885e+00 7.072820000000000107e+00 1.360182000000000002e+01 5.781920000000000393e+00 4.178980000000000139e+00 1.550225999999999971e+01 6.680159999999999876e+00 4.588079999999999714e+00 1.360180000000000078e+01 7.103769999999999918e+00 6.663689999999999891e+00 1.550224000000000046e+01 7.578500000000000014e+00 4.997200000000000308e+00 1.170139999999999958e+01 7.133189999999999920e+00 9.557539999999999480e+00 1.360181000000000040e+01 8.002060000000000173e+00 7.072809999999999597e+00 1.360182999999999964e+01 7.972640000000000171e+00 4.178969999999999629e+00 1.550225999999999971e+01 2.751749999999999918e+00 9.557550000000000878e+00 1.360182000000000002e+01 2.328209999999999891e+00 7.481930000000000192e+00 1.170139999999999958e+01 4.044220000000000148e+00 9.148440000000000794e+00 1.550226999999999933e+01 4.942459999999999631e+00 9.557550000000000878e+00 1.360180000000000078e+01 4.518939999999999735e+00 7.481930000000000192e+00 1.170139999999999958e+01 6.234939999999999927e+00 9.148429999999999396e+00 1.550228000000000073e+01 3.650090000000000057e+00 9.966659999999999187e+00 1.170139999999999958e+01 5.840790000000000148e+00 9.966649999999999565e+00 1.170140999999999920e+01 8.031530000000000058e+00 9.966649999999999565e+00 1.170140999999999920e+01 8.028040000000000731e+00 9.286009999999999209e+00 4.612280000000000157e+00 8.048360000000000625e+00 1.583816999999999986e+01 8.156829999999999359e+00 2.354159999999999808e+00 9.695130000000000692e+00 2.711860000000000159e+00 3.646590000000000220e+00 9.286009999999999209e+00 4.612260000000000026e+00 6.302929999999999922e+00 1.127779999999999916e+01 6.256420000000000314e+00 4.544880000000000031e+00 9.695130000000000692e+00 2.711860000000000159e+00 5.837320000000000064e+00 9.286009999999999209e+00 4.612280000000000157e+00 7.624799999999999578e+00 1.376254999999999917e+01 6.256420000000000314e+00 6.735610000000000319e+00 9.695130000000000692e+00 2.711850000000000094e+00 1.485279999999999934e+00 1.217985999999999969e+01 2.711829999999999963e+00 8.481070000000000775e+00 1.425545999999999935e+01 4.612260000000000026e+00 2.383620000000000072e+00 1.258896999999999977e+01 8.114099999999999646e-01 1.061770000000000103e+00 1.010424000000000078e+01 8.114200000000000301e-01 2.807170000000000165e+00 1.466460000000000008e+01 2.711860000000000159e+00 2.777759999999999785e+00 1.177074999999999960e+01 4.612300000000000288e+00 3.676010000000000222e+00 1.217985999999999969e+01 2.711829999999999963e+00 4.099619999999999820e+00 1.425548000000000037e+01 4.612269999999999648e+00 4.574340000000000295e+00 1.258896999999999977e+01 8.114200000000000301e-01 3.252470000000000194e+00 1.010422999999999938e+01 8.114299999999999846e-01 4.997889999999999944e+00 1.466460000000000008e+01 2.711860000000000159e+00 4.968479999999999563e+00 1.177073999999999998e+01 4.612300000000000288e+00 5.866729999999999556e+00 1.217985999999999969e+01 2.711829999999999963e+00 6.290329999999999977e+00 1.425548000000000037e+01 4.612260000000000026e+00 6.765060000000000073e+00 1.258896999999999977e+01 8.114200000000000301e-01 5.443200000000000038e+00 1.010424000000000078e+01 8.114299999999999846e-01 7.188620000000000232e+00 1.466460000000000008e+01 2.711860000000000159e+00 7.159209999999999852e+00 1.177074999999999960e+01 4.612300000000000288e+00 6.726479999999999571e+00 1.335342999999999947e+01 8.156829999999999359e+00 3.213890000000000136e+00 1.086870000000000047e+01 8.156829999999999359e+00 5.857639999999999958e+00 1.583816999999999986e+01 8.156840000000000757e+00 5.404620000000000424e+00 1.086870000000000047e+01 8.156850000000000378e+00 4.112219999999999764e+00 1.127781000000000056e+01 6.256420000000000314e+00 7.595340000000000202e+00 1.086870000000000047e+01 8.156840000000000757e+00 2.345040000000000013e+00 1.335342999999999947e+01 8.156829999999999359e+00 3.243349999999999955e+00 1.376253999999999955e+01 6.256409999999999805e+00 1.921499999999999986e+00 1.127781000000000056e+01 6.256409999999999805e+00 3.666910000000000114e+00 1.583816999999999986e+01 8.156840000000000757e+00 4.535759999999999792e+00 1.335344000000000086e+01 8.156819999999999737e+00 5.434079999999999799e+00 1.376256000000000057e+01 6.256409999999999805e+00 1.514769999999999950e+00 1.507368999999999915e+01 8.114200000000000301e-01 3.705509999999999859e+00 1.507370000000000054e+01 8.114400000000000501e-01 5.896209999999999951e+00 1.507368999999999915e+01 8.114299999999999846e-01 2.374499999999999833e+00 1.624727999999999994e+01 6.256429999999999936e+00 4.565240000000000187e+00 1.624727000000000032e+01 6.256429999999999936e+00 6.755950000000000344e+00 1.624727000000000032e+01 6.256429999999999936e+00 8.887769999999999726e+00 1.045958000000000077e+01 1.005725999999999942e+01 4.506330000000000169e+00 1.045958000000000077e+01 1.005727000000000082e+01 6.697049999999999947e+00 1.045958000000000077e+01 1.005725999999999942e+01 9.340799999999999770e+00 1.542904000000000053e+01 1.005724999999999980e+01 3.637500000000000178e+00 1.294431999999999938e+01 1.005728000000000044e+01 4.959349999999999703e+00 1.542905000000000015e+01 1.005725999999999942e+01 5.828210000000000335e+00 1.294431999999999938e+01 1.005728000000000044e+01 7.150070000000000370e+00 1.542905000000000015e+01 1.005725999999999942e+01 8.018950000000000244e+00 1.294431999999999938e+01 1.005728000000000044e+01 9.747510000000000119e+00 1.163316999999999979e+01 1.550225000000000009e+01 8.878679999999999239e+00 1.411790000000000056e+01 1.550225999999999971e+01 4.073640000000000150e+00 1.204227999999999987e+01 1.360183999999999926e+01 5.366069999999999673e+00 1.163316999999999979e+01 1.550225999999999971e+01 8.908089999999999620e+00 1.701173000000000002e+01 1.360182999999999964e+01 6.264339999999999797e+00 1.204227000000000025e+01 1.360182999999999964e+01 7.556779999999999831e+00 1.163315000000000055e+01 1.550225999999999971e+01 7.162659999999999805e+00 1.245138000000000034e+01 1.170140999999999920e+01 8.455080000000000595e+00 1.204227000000000025e+01 1.360182000000000002e+01 3.204769999999999897e+00 1.452699999999999925e+01 1.360182000000000002e+01 1.020054000000000016e+01 1.660262000000000171e+01 1.550225000000000009e+01 4.103089999999999904e+00 1.493610999999999933e+01 1.170138999999999996e+01 2.781219999999999803e+00 1.245138999999999996e+01 1.170140999999999920e+01 4.526659999999999684e+00 1.701174999999999926e+01 1.360182999999999964e+01 4.497239999999999682e+00 1.411790000000000056e+01 1.550225999999999971e+01 5.395489999999999675e+00 1.452698999999999963e+01 1.360182000000000002e+01 5.819090000000000096e+00 1.660262000000000171e+01 1.550225999999999971e+01 6.293809999999999683e+00 1.493612000000000073e+01 1.170139999999999958e+01 4.971949999999999648e+00 1.245138000000000034e+01 1.170140999999999920e+01 6.717369999999999841e+00 1.701173999999999964e+01 1.360182999999999964e+01 6.687960000000000349e+00 1.411790000000000056e+01 1.550226999999999933e+01 7.586199999999999832e+00 1.452699999999999925e+01 1.360181000000000040e+01 8.009800000000000253e+00 1.660262000000000171e+01 1.550225000000000009e+01 8.484529999999999461e+00 1.493612000000000073e+01 1.170138999999999996e+01 3.234249999999999847e+00 1.742085000000000150e+01 1.170139999999999958e+01 5.424970000000000070e+00 1.742083999999999833e+01 1.170140999999999920e+01 7.615680000000000227e+00 1.742085000000000150e+01 1.170139999999999958e+01