-1.227691954709999891e+03
-1.227739501860000018e+03
-1.228043137670000078e+03
-1.228606670469999926e+03
-1.229435698839999986e+03
-1.230537566040000002e+03
-1.231919578909999927e+03
-1.233588137270000061e+03
-1.235546864109999888e+03
-1.237795571710000104e+03
