-7.738469999999999516e-01 1.106924000000000019e+00 1.814229000000000092e+00 7.723419999999999730e-01 -1.106672000000000100e+00 -1.811922999999999950e+00 7.711289999999999534e-01 -1.107240999999999920e+00 -1.813239000000000045e+00 -7.728819999999999579e-01 1.106100000000000083e+00 1.813533999999999979e+00 7.727239999999999664e-01 -1.105658000000000030e+00 -1.812853999999999965e+00 7.729489999999999972e-01 -1.106776999999999900e+00 -1.812626000000000071e+00 -7.719559999999999755e-01 1.105744999999999978e+00 1.813576000000000077e+00 7.715119999999999756e-01 -1.106564000000000103e+00 -1.811633000000000049e+00 7.723860000000000170e-01 -1.107115999999999989e+00 -1.814135999999999971e+00 -7.724050000000000082e-01 1.106378000000000084e+00 1.813514000000000070e+00 -7.737049999999999761e-01 1.105780999999999903e+00 1.814496000000000109e+00 7.712940000000000351e-01 -1.106667999999999985e+00 -1.812823000000000073e+00 -7.716939999999999911e-01 1.107045000000000057e+00 1.813496999999999915e+00 -7.726279999999999815e-01 1.105218000000000034e+00 1.814135000000000053e+00 7.722529999999999673e-01 -1.105860999999999983e+00 -1.812183000000000099e+00 -7.728920000000000234e-01 1.107031000000000098e+00 1.813477999999999923e+00 -7.726429999999999687e-01 1.106187999999999949e+00 1.814341999999999899e+00 7.719669999999999588e-01 -1.107039000000000106e+00 -1.813037000000000010e+00 7.722529999999999673e-01 -1.105256999999999934e+00 -1.812178000000000067e+00 7.715720000000000356e-01 -1.106862000000000013e+00 -1.814090999999999898e+00 7.727399999999999824e-01 -1.106395000000000017e+00 -1.813347000000000042e+00 7.723330000000000473e-01 -1.106047000000000002e+00 -1.813269999999999937e+00 7.718120000000000536e-01 -1.107100999999999891e+00 -1.813075999999999910e+00 7.722390000000000088e-01 -1.107369999999999965e+00 -1.814186000000000076e+00 7.717439999999999856e-01 -1.106969000000000092e+00 -1.812999999999999945e+00 7.724600000000000355e-01 -1.106675000000000075e+00 -1.813512999999999931e+00 7.727629999999999777e-01 -1.107860000000000067e+00 -1.814027000000000056e+00 -7.738089999999999691e-01 1.106149999999999967e+00 1.814550000000000107e+00 -7.728969999999999452e-01 1.107085000000000097e+00 1.813358000000000025e+00 -7.722240000000000215e-01 1.106638000000000011e+00 1.814375999999999989e+00 -7.721379999999999910e-01 1.106983999999999968e+00 1.814173000000000036e+00 -7.729960000000000164e-01 1.105631000000000030e+00 1.813360000000000083e+00 -7.723889999999999922e-01 1.106481000000000048e+00 1.814392000000000005e+00 -7.732219999999999649e-01 1.105849000000000082e+00 1.814030000000000031e+00 -7.731940000000000479e-01 1.107042000000000082e+00 1.814014999999999933e+00 -7.729080000000000394e-01 1.105582000000000065e+00 1.814799000000000051e+00 -7.738089999999999691e-01 1.106217999999999924e+00 1.813671000000000033e+00 7.731109999999999927e-01 -1.106378000000000084e+00 -1.813509999999999955e+00 7.714189999999999658e-01 -1.106905000000000028e+00 -1.812548000000000048e+00 -7.728220000000000089e-01 1.106513999999999998e+00 1.812883000000000022e+00 7.724299999999999500e-01 -1.106989000000000001e+00 -1.813946999999999976e+00 7.721470000000000278e-01 -1.106670999999999960e+00 -1.812356999999999996e+00 -7.727549999999999697e-01 1.106721999999999984e+00 1.813749999999999973e+00 7.724389999999999867e-01 -1.106694999999999984e+00 -1.812959999999999905e+00 7.726849999999999552e-01 -1.107591999999999910e+00 -1.812916999999999890e+00 -7.722290000000000543e-01 1.105383999999999922e+00 1.813911999999999969e+00 -7.737169999999999881e-01 1.107042000000000082e+00 1.814456999999999987e+00 7.715589999999999948e-01 -1.107334000000000040e+00 -1.813827000000000078e+00 -7.718800000000000106e-01 1.106680000000000108e+00 1.813460000000000072e+00 -7.731569999999999832e-01 1.106227999999999989e+00 1.814078000000000079e+00 7.727979999999999849e-01 -1.107542000000000026e+00 -1.813530000000000086e+00 -7.731069999999999887e-01 1.105069999999999997e+00 1.813139999999999974e+00 -7.722860000000000280e-01 1.106517999999999891e+00 1.814583999999999975e+00 7.721999999999999975e-01 -1.107012000000000107e+00 -1.813528000000000029e+00 -7.726439999999999975e-01 1.107209000000000110e+00 1.814303999999999917e+00 -7.719949999999999868e-01 1.106335999999999986e+00 1.814318000000000097e+00 -7.735020000000000229e-01 1.106765999999999917e+00 1.813841999999999954e+00 7.726300000000000390e-01 -1.106246999999999980e+00 -1.813134000000000023e+00 7.728530000000000122e-01 -1.106660999999999895e+00 -1.813552999999999971e+00 7.720609999999999973e-01 -1.107264999999999944e+00 -1.812942000000000053e+00 -7.726460000000000550e-01 1.106829000000000063e+00 1.813639000000000001e+00 -7.735689999999999511e-01 1.106193999999999900e+00 1.813947999999999894e+00 7.725250000000000172e-01 -1.106308999999999987e+00 -1.813028000000000084e+00 7.718070000000000208e-01 -1.106541999999999915e+00 -1.813242999999999938e+00 -7.722189999999999888e-01 1.106340000000000101e+00 1.813913000000000109e+00 -7.733750000000000346e-01 1.106527000000000038e+00 1.814445000000000086e+00 7.724689999999999612e-01 -1.107045000000000057e+00 -1.813160000000000105e+00 7.718819999999999570e-01 -1.107148999999999939e+00 -1.812178999999999984e+00 -7.724459999999999660e-01 1.105466000000000060e+00 1.813533000000000062e+00 -7.723619999999999930e-01 1.106722999999999901e+00 1.813960000000000017e+00 7.718559999999999865e-01 -1.106452999999999909e+00 -1.812562000000000006e+00 7.727760000000000185e-01 -1.107180000000000053e+00 -1.813453999999999899e+00 7.726290000000000102e-01 -1.106937000000000060e+00 -1.813331000000000026e+00 7.727720000000000145e-01 -1.107282000000000100e+00 -1.813299999999999912e+00 7.722949999999999537e-01 -1.106780000000000097e+00 -1.812980000000000036e+00 7.728289999999999882e-01 -1.107318000000000024e+00 -1.813336000000000059e+00 7.716239999999999766e-01 -1.107045000000000057e+00 -1.813031999999999977e+00 7.720219999999999860e-01 -1.107213999999999920e+00 -1.813476000000000088e+00 7.725229999999999597e-01 -1.106216000000000088e+00 -1.812869999999999981e+00 7.718840000000000146e-01 -1.107161000000000062e+00 -1.813153999999999932e+00 7.725530000000000452e-01 -1.107596000000000025e+00 -1.813369999999999926e+00 -7.731980000000000519e-01 1.107263000000000108e+00 1.814413000000000054e+00 -7.718660000000000521e-01 1.106017000000000028e+00 1.814265999999999934e+00 -7.723929999999999962e-01 1.105286999999999908e+00 1.813452000000000064e+00 -7.723280000000000145e-01 1.105099000000000053e+00 1.813708000000000098e+00 -7.727819999999999689e-01 1.105339999999999989e+00 1.813110999999999917e+00 -7.718970000000000553e-01 1.105761999999999912e+00 1.813353999999999910e+00 -7.730409999999999782e-01 1.107337000000000016e+00 1.813728000000000007e+00 -7.727850000000000552e-01 1.105990000000000029e+00 1.813463000000000047e+00 -7.726089999999999902e-01 1.107089999999999907e+00 1.813865999999999978e+00 -7.722290000000000543e-01 1.105939000000000005e+00 1.813352000000000075e+00 -7.719530000000000003e-01 1.106594000000000078e+00 1.814014999999999933e+00 -7.725229999999999597e-01 1.105961999999999890e+00 1.813350000000000017e+00 7.731019999999999559e-01 -1.106408000000000058e+00 -1.813401999999999958e+00 7.721179999999999710e-01 -1.106778999999999957e+00 -1.813156999999999908e+00 7.724339999999999540e-01 -1.108217000000000008e+00 -1.813760999999999957e+00 -7.724360000000000115e-01 1.106854999999999922e+00 1.813445999999999891e+00 -7.737770000000000481e-01 1.107574999999999976e+00 1.813528999999999947e+00 7.729939999999999589e-01 -1.105944000000000038e+00 -1.812232999999999983e+00 7.714999999999999636e-01 -1.107188999999999979e+00 -1.812883999999999940e+00 -7.711550000000000349e-01 1.105563999999999991e+00 1.813361000000000001e+00 -7.725769999999999582e-01 1.106187999999999949e+00 1.813776999999999973e+00 7.719770000000000243e-01 -1.106535000000000046e+00 -1.812729000000000035e+00 7.721970000000000223e-01 -1.106043000000000109e+00 -1.812437999999999994e+00 -7.724060000000000370e-01 1.105218000000000034e+00 1.813574000000000019e+00 -7.717309999999999448e-01 1.106775999999999982e+00 1.813576000000000077e+00 7.723330000000000473e-01 -1.106651999999999969e+00 -1.813307000000000002e+00 7.724220000000000530e-01 -1.107154999999999889e+00 -1.813922999999999952e+00 5.280000000000000405e-04 -1.503999999999999912e-03 -8.260000000000000198e-04 -4.847203999999999624e+00 -6.476260000000000350e-01 1.032652000000000037e+01 4.846865000000000201e+00 6.468350000000000488e-01 -1.032969600000000021e+01 4.846892000000000422e+00 6.487650000000000361e-01 -1.032683399999999985e+01 9.100000000000000016e-04 -1.431999999999999896e-03 -3.572999999999999787e-03 -4.847472999999999921e+00 -6.484860000000000069e-01 1.032675899999999913e+01 1.753000000000000001e-03 -1.868000000000000086e-03 -1.142000000000000003e-03 -4.847040999999999933e+00 -6.481519999999999504e-01 1.032695999999999970e+01 4.846733999999999654e+00 6.466359999999999886e-01 -1.032984000000000080e+01 -1.930000000000000021e-04 -7.209999999999999612e-04 1.629000000000000023e-03 2.930000000000000204e-04 -1.196999999999999930e-03 -2.710999999999999868e-03 -4.847495000000000331e+00 -6.482489999999999641e-01 1.032621100000000069e+01 9.899999999999999404e-05 -1.283999999999999985e-03 -1.783999999999999996e-03 -4.847152999999999601e+00 -6.478880000000000194e-01 1.032736700000000063e+01 4.846296999999999855e+00 6.460820000000000451e-01 -1.032912400000000019e+01 4.846753999999999785e+00 6.484820000000000029e-01 -1.032730399999999982e+01 1.033999999999999980e-03 -1.015000000000000060e-03 -2.325999999999999943e-03 -4.846905999999999715e+00 -6.484560000000000324e-01 1.032678199999999968e+01 8.779999999999999827e-04 -6.430000000000000169e-04 -1.459999999999999926e-03 4.847497999999999863e+00 6.470110000000000028e-01 -1.033033999999999963e+01 -4.847212999999999994e+00 -6.458110000000000239e-01 1.032572000000000045e+01 1.144000000000000052e-03 -9.049999999999999885e-04 -5.159999999999999656e-04 4.845763999999999960e+00 6.463790000000000369e-01 -1.032885500000000079e+01 -4.847690000000000055e+00 -6.458930000000000504e-01 1.032602499999999957e+01 7.860000000000000233e-04 -6.310000000000000504e-04 -1.598999999999999944e-03 4.847830000000000084e+00 6.475319999999999965e-01 -1.032958299999999952e+01 -4.847370999999999874e+00 -6.466009999999999813e-01 1.032675899999999913e+01 6.210000000000000242e-04 -3.199999999999999855e-05 4.690000000000000158e-04 4.847031000000000311e+00 6.467559999999999976e-01 -1.032851199999999992e+01 9.309999999999999699e-04 -1.920000000000000049e-04 1.199999999999999895e-03 6.269999999999999532e-04 7.929999999999999766e-04 -1.193000000000000050e-03 9.280000000000000054e-04 3.699999999999999811e-05 -7.100000000000000462e-05 4.847490999999999772e+00 6.471609999999999863e-01 -1.032924500000000023e+01 4.846648000000000067e+00 6.479730000000000212e-01 -1.032707599999999992e+01 7.200000000000000182e-05 5.199999999999999680e-05 6.710000000000000469e-04 -9.699999999999999963e-05 8.429999999999999993e-04 -9.770000000000000039e-04 4.845603999999999800e+00 6.472869999999999457e-01 -1.032928099999999993e+01 1.382999999999999898e-03 -6.030000000000000204e-04 4.600000000000000139e-04 1.108000000000000044e-03 -2.530000000000000239e-04 -6.170000000000000354e-04 4.846631000000000355e+00 6.475589999999999957e-01 -1.032910599999999945e+01 4.847259000000000206e+00 6.473489999999999522e-01 -1.032958600000000082e+01 4.845731999999999928e+00 6.480099999999999749e-01 -1.032973100000000066e+01 4.847031000000000311e+00 6.485090000000000021e-01 -1.032764799999999994e+01 4.846182999999999907e+00 6.477779999999999649e-01 -1.032824699999999929e+01 4.846560000000000201e+00 6.486920000000000464e-01 -1.032827100000000087e+01 -4.847622999999999571e+00 -6.460620000000000251e-01 1.032754699999999914e+01 -4.846852000000000160e+00 -6.456579999999999542e-01 1.032637700000000081e+01 -4.846858000000000111e+00 -6.459000000000000297e-01 1.032751599999999925e+01 -4.848571999999999882e+00 -6.456870000000000109e-01 1.032722799999999985e+01 -4.847194000000000003e+00 -6.458739999999999482e-01 1.032734899999999989e+01 -4.846731000000000122e+00 -6.461660000000000181e-01 1.032604899999999937e+01 -4.847343000000000401e+00 -6.477800000000000225e-01 1.032684500000000050e+01 -4.847883000000000386e+00 -6.465729999999999533e-01 1.032694900000000082e+01 -4.847446999999999839e+00 -6.468880000000000186e-01 1.032677499999999959e+01 1.329000000000000103e-03 -1.100000000000000066e-03 1.242999999999999964e-03 -4.847226000000000035e+00 -6.471430000000000238e-01 1.032770299999999963e+01 4.846974000000000338e+00 6.495290000000000230e-01 -1.032703899999999919e+01 -4.846833000000000169e+00 -6.477450000000000152e-01 1.032885100000000023e+01 -1.800000000000000046e-05 -6.740000000000000114e-04 -2.469999999999999865e-04 -4.847285000000000288e+00 -6.479089999999999572e-01 1.032771800000000084e+01 7.990000000000000140e-04 -7.249999999999999500e-04 1.747999999999999988e-03 -4.847385000000000055e+00 -6.483630000000000226e-01 1.032892499999999991e+01 4.846454999999999735e+00 6.486750000000000016e-01 -1.032760099999999959e+01 4.846464000000000105e+00 6.479599999999999804e-01 -1.032640199999999986e+01 6.830000000000000134e-04 -6.809999999999999647e-04 8.140000000000000534e-04 -4.847853999999999886e+00 -6.479890000000000372e-01 1.032839300000000016e+01 9.269999999999999811e-04 -3.029999999999999924e-04 2.075000000000000022e-03 -4.847366000000000064e+00 -6.478040000000000465e-01 1.032822499999999977e+01 4.846063000000000009e+00 6.491649999999999920e-01 -1.032760900000000071e+01 4.020000000000000136e-04 -1.732000000000000033e-03 4.470000000000000232e-04 -4.009999999999999893e-04 -3.099999999999999999e-04 6.579999999999999478e-04 -4.848315999999999626e+00 -6.485220000000000429e-01 1.032894399999999990e+01 8.109999999999999805e-04 -2.047999999999999907e-03 1.121999999999999950e-03 4.847681999999999825e+00 6.465319999999999956e-01 -1.032777300000000054e+01 -4.847589000000000148e+00 -6.479190000000000227e-01 1.032782399999999967e+01 9.049999999999999885e-04 -2.501999999999999884e-03 2.262999999999999821e-03 4.845457999999999821e+00 6.474239999999999995e-01 -1.032730500000000085e+01 -4.847911999999999999e+00 -6.474010000000000042e-01 1.032733799999999924e+01 4.845854000000000106e+00 6.460329999999999684e-01 -1.032760099999999959e+01 4.847521000000000413e+00 6.457220000000000182e-01 -1.032932199999999945e+01 4.845134999999999970e+00 6.465109999999999468e-01 -1.032811300000000010e+01 -4.847218999999999944e+00 -6.463759999999999506e-01 1.032638099999999959e+01 -4.769999999999999934e-04 -7.500000000000000156e-04 -8.120000000000000048e-04 -6.000000000000000152e-05 1.252999999999999991e-03 -2.327000000000000075e-03 -4.847179999999999822e+00 -6.462599999999999456e-01 1.032748499999999936e+01 4.847617999999999761e+00 6.482229999999999936e-01 -1.032839700000000072e+01 5.230000000000000274e-04 1.806000000000000097e-03 -2.279999999999999909e-03 -4.846770000000000245e+00 -6.459890000000000354e-01 1.032571000000000083e+01 4.846391999999999811e+00 6.470949999999999758e-01 -1.033092199999999927e+01 -4.499999999999999877e-04 1.624999999999999925e-03 -1.172000000000000082e-03 1.420999999999999954e-03 -4.670000000000000214e-04 -1.314999999999999980e-03 -4.847586999999999868e+00 -6.475300000000000500e-01 1.032722099999999976e+01 4.846471000000000195e+00 6.484020000000000339e-01 -1.032728499999999983e+01 4.846981000000000428e+00 6.486979999999999968e-01 -1.032847899999999974e+01 6.790000000000000245e-04 -2.037000000000000182e-03 -2.524999999999999901e-03 -4.846896000000000093e+00 -6.464739999999999931e-01 1.032436200000000071e+01 9.749999999999999552e-04 -3.559999999999999797e-04 -1.217999999999999899e-03 -4.846773999999999916e+00 -6.481999999999999984e-01 1.032663600000000059e+01 4.846783000000000285e+00 6.487039999999999473e-01 -1.032890199999999936e+01 4.846516000000000268e+00 6.492879999999999763e-01 -1.032842199999999977e+01 1.160999999999999923e-03 -1.704000000000000003e-03 -2.224999999999999981e-03 -4.847444000000000308e+00 -6.457819999999999672e-01 1.032525799999999983e+01 1.033000000000000064e-03 -1.990000000000000124e-04 -1.549000000000000030e-03 -4.846948000000000256e+00 -6.479559999999999764e-01 1.032736200000000082e+01 4.846191000000000138e+00 6.488410000000000011e-01 -1.032867899999999928e+01 4.847440999999999889e+00 6.491310000000000136e-01 -1.032868200000000058e+01 2.759999999999999867e-04 -1.891000000000000103e-03 -2.451000000000000054e-03 -4.847628000000000270e+00 -6.473039999999999905e-01 1.032564700000000002e+01 7.320000000000000118e-04 -2.399000000000000091e-03 -2.608000000000000075e-03 1.440000000000000036e-04 -1.046999999999999971e-03 -8.620000000000000275e-04 -6.399999999999999710e-05 -1.224999999999999960e-03 -7.219999999999999855e-04 3.499999999999999964e-04 -7.020000000000000415e-04 -7.720000000000000083e-04 4.846529000000000309e+00 6.478040000000000465e-01 -1.032881800000000005e+01 -1.679999999999999907e-04 -3.899999999999999929e-05 -1.020000000000000073e-03 9.160000000000000390e-04 -1.379000000000000017e-03 -2.935999999999999808e-03 4.847139999999999560e+00 6.475499999999999590e-01 -1.032944400000000051e+01 4.847108999999999668e+00 6.473330000000000473e-01 -1.032803999999999967e+01 7.399999999999999894e-04 -1.407999999999999963e-03 -3.307000000000000044e-03 7.889999999999999878e-04 -2.059000000000000066e-03 -1.871000000000000050e-03 4.847102999999999717e+00 6.459970000000000434e-01 -1.033036500000000046e+01 4.847483999999999682e+00 6.469960000000000155e-01 -1.032825099999999985e+01 4.846168999999999727e+00 6.472670000000000368e-01 -1.032938000000000045e+01 4.847712999999999717e+00 6.476859999999999840e-01 -1.032807400000000086e+01 4.847891999999999868e+00 6.462339999999999751e-01 -1.033060200000000073e+01 4.845945999999999643e+00 6.469599999999999795e-01 -1.033048600000000050e+01 4.847972000000000392e+00 6.471449999999999703e-01 -1.033009400000000078e+01 -4.847610999999999670e+00 -6.474990000000000467e-01 1.032812400000000075e+01 -4.846737000000000073e+00 -6.489200000000000523e-01 1.032740699999999912e+01 -4.847091999999999956e+00 -6.487009999999999721e-01 1.032826099999999947e+01 -4.848374999999999879e+00 -6.461329999999999574e-01 1.032765299999999975e+01 -4.847712999999999717e+00 -6.484609999999999541e-01 1.032721500000000070e+01 -4.846636000000000166e+00 -6.468850000000000433e-01 1.032663999999999938e+01 -4.847000000000000419e+00 -6.486969999999999681e-01 1.032701400000000014e+01 -4.846848999999999741e+00 -6.471189999999999998e-01 1.032642399999999938e+01 -4.848116000000000092e+00 -6.493309999999999915e-01 1.032795100000000055e+01 -4.847598999999999769e+00 -6.483010000000000161e-01 1.032916099999999915e+01 -4.847508999999999624e+00 -6.472020000000000550e-01 1.033048400000000022e+01 -2.579999999999999828e-04 -1.631000000000000071e-03 1.039999999999999909e-03 -4.847171999999999592e+00 -6.483579999999999899e-01 1.032918599999999998e+01 3.649999999999999816e-04 1.332000000000000068e-03 2.916999999999999888e-03 1.379999999999999933e-04 -5.659999999999999884e-04 3.216000000000000109e-03 -4.846595999999999904e+00 -6.471900000000000430e-01 1.032849500000000020e+01 4.847946000000000311e+00 6.464929999999999843e-01 -1.032830300000000001e+01 -3.159999999999999832e-04 -5.890000000000000053e-04 3.001000000000000195e-03 7.839999999999999747e-04 9.489999999999999738e-04 3.213999999999999843e-03 -4.847528999999999755e+00 -6.465119999999999756e-01 1.032882099999999959e+01 4.846847000000000349e+00 6.480069999999999997e-01 -1.032631600000000027e+01 4.847400000000000375e+00 6.454800000000000537e-01 -1.032810199999999945e+01 -5.969999999999999829e-04 5.399999999999999798e-05 2.492999999999999990e-03 -4.848068999999999740e+00 -6.463839999999999586e-01 1.033030600000000021e+01 9.169999999999999549e-04 3.950000000000000061e-04 2.386999999999999799e-03 -4.847082999999999586e+00 -6.466749999999999998e-01 1.032950600000000030e+01 4.847052999999999834e+00 6.470010000000000483e-01 -1.032744399999999985e+01 4.845527999999999835e+00 6.461970000000000214e-01 -1.032822999999999958e+01 6.199999999999999999e-04 1.209000000000000005e-03 2.621000000000000066e-03 -4.847825000000000273e+00 -6.460630000000000539e-01 1.033007500000000078e+01 5.540000000000000219e-04 6.059999999999999849e-04 2.880000000000000181e-03 -4.846655000000000157e+00 -6.462689999999999824e-01 1.032930900000000030e+01 4.845252000000000336e+00 6.474330000000000362e-01 -1.032671500000000009e+01 4.847398000000000096e+00 6.481559999999999544e-01 -1.032608800000000038e+01 4.845992999999999995e+00 6.487990000000000146e-01 -1.032700600000000080e+01 4.847139999999999560e+00 6.484379999999999589e-01 -1.032532100000000064e+01