4.636846089877331906e+03 -7.235331969629085052e+02 -9.102061174030289976e+02 -7.235331969629085052e+02 4.319642123863179222e+03 -3.081329431123835434e+02 -9.102061174030289976e+02 -3.081329431123835434e+02 5.129141176604626708e+03
4.637068847148060740e+03 -7.228151671362102206e+02 -9.104042903586209832e+02 -7.228151671362102206e+02 4.318038579192470024e+03 -3.077720901193979444e+02 -9.104042903586209832e+02 -3.077720901193979444e+02 5.129072058816555909e+03
4.637321692983276080e+03 -7.213467113292205113e+02 -9.103629635354894845e+02 -7.213467113292205113e+02 4.315429814741421978e+03 -3.071436267167262031e+02 -9.103629635354894845e+02 -3.071436267167262031e+02 5.128852947736409988e+03
4.637676891883466851e+03 -7.190496711991349912e+02 -9.102113419446045555e+02 -7.190496711991349912e+02 4.311074315220155768e+03 -3.065202679808710968e+02 -9.102113419446045555e+02 -3.065202679808710968e+02 5.128784339416064540e+03
4.638136621573420598e+03 -7.160981648332590339e+02 -9.098227779031859654e+02 -7.160981648332590339e+02 4.305971955992676158e+03 -3.056820137605570835e+02 -9.098227779031859654e+02 -3.056820137605570835e+02 5.128622048971637923e+03
4.638514267022214881e+03 -7.123028300707801463e+02 -9.092852594842681810e+02 -7.123028300707801463e+02 4.298790938477141026e+03 -3.049526657587059049e+02 -9.092852594842681810e+02 -3.049526657587059049e+02 5.128416503718372951e+03
4.639149373484442549e+03 -7.078053688662841978e+02 -9.085449729106670702e+02 -7.078053688662841978e+02 4.291338764256968716e+03 -3.040168634533351906e+02 -9.085449729106670702e+02 -3.040168634533351906e+02 5.128419610472541535e+03
4.639254933199220432e+03 -7.024711219072709127e+02 -9.076655117419804810e+02 -7.024711219072709127e+02 4.281105905202355643e+03 -3.033672021974642234e+02 -9.076655117419804810e+02 -3.033672021974642234e+02 5.127950540540956354e+03
4.639998136725286713e+03 -6.964313120964850441e+02 -9.065576791680217639e+02 -6.964313120964850441e+02 4.271532487186027538e+03 -3.025006775131757877e+02 -9.065576791680217639e+02 -3.025006775131757877e+02 5.128230787748143484e+03
4.640126442675566068e+03 -6.895530083158676007e+02 -9.053643858805289710e+02 -6.895530083158676007e+02 4.259155797932769929e+03 -3.020486397869185566e+02 -9.053643858805289710e+02 -3.020486397869185566e+02 5.128039477622498453e+03
