2.034749999999999837e+00 4.059029999999999916e+00 2.983299999999999841e+00 4.927300000000000013e-01 5.381249999999999645e+00 1.230799999999999894e+00 1.787930000000000019e+00 1.524990000000000068e+00 1.230830000000000091e+00 5.007780000000000342e+00 4.059029999999999916e+00 2.983290000000000219e+00 3.465749999999999886e+00 5.381249999999999645e+00 1.230809999999999960e+00 4.760950000000000237e+00 1.524999999999999911e+00 1.230839999999999934e+00 7.980789999999999829e+00 4.059020000000000294e+00 2.983290000000000219e+00 6.438760000000000261e+00 5.381249999999999645e+00 1.230799999999999894e+00 7.733979999999999855e+00 1.524990000000000068e+00 1.230839999999999934e+00 1.089360000000000106e+00 5.825470000000000148e+00 5.461459999999999759e+00 2.384570000000000078e+00 1.969219999999999970e+00 5.461509999999999643e+00 4.062380000000000102e+00 5.825479999999999769e+00 5.461479999999999890e+00 5.357579999999999565e+00 1.969219999999999970e+00 5.461500000000000021e+00 7.035389999999999588e+00 5.825479999999999769e+00 5.461470000000000269e+00 8.330610000000000070e+00 1.969219999999999970e+00 5.461500000000000021e+00 2.631390000000000118e+00 4.503269999999999662e+00 7.213960000000000150e+00 5.604409999999999670e+00 4.503269999999999662e+00 7.213960000000000150e+00 8.577410000000000423e+00 4.503260000000000041e+00 7.213960000000000150e+00 3.228009999999999824e+00 4.947490000000000165e+00 1.144463000000000008e+01 1.685990000000000100e+00 6.269700000000000273e+00 9.692130000000000578e+00 2.981199999999999850e+00 2.413460000000000161e+00 9.692180000000000462e+00 6.201039999999999885e+00 4.947490000000000165e+00 1.144463999999999970e+01 4.659019999999999939e+00 6.269709999999999894e+00 9.692140000000000200e+00 5.954229999999999912e+00 2.413460000000000161e+00 9.692180000000000462e+00 9.174060000000000770e+00 4.947490000000000165e+00 1.144463999999999970e+01 7.632019999999999804e+00 6.269700000000000273e+00 9.692130000000000578e+00 8.927239999999999398e+00 2.413460000000000161e+00 9.692159999999999442e+00 9.658620000000000871e+00 7.915269999999999584e+00 2.983299999999999841e+00 2.417409999999999837e+00 1.177150999999999925e+01 2.983290000000000219e+00 2.170589999999999797e+00 9.237460000000000448e+00 1.230830000000000091e+00 3.712569999999999926e+00 7.915289999999999715e+00 2.983299999999999841e+00 5.390439999999999898e+00 1.177150999999999925e+01 2.983309999999999906e+00 5.143620000000000303e+00 9.237479999999999691e+00 1.230830000000000091e+00 6.685599999999999987e+00 7.915280000000000094e+00 2.983299999999999841e+00 8.363450000000000273e+00 1.177149999999999963e+01 2.983309999999999906e+00 8.116640000000000299e+00 9.237460000000000448e+00 1.230830000000000091e+00 2.767230000000000079e+00 9.681710000000000704e+00 5.461509999999999643e+00 5.740260000000000140e+00 9.681689999999999685e+00 5.461490000000000400e+00 8.713279999999999248e+00 9.681710000000000704e+00 5.461500000000000021e+00 1.025525999999999982e+01 8.359500000000000597e+00 7.213969999999999771e+00 3.014050000000000118e+00 1.221573000000000064e+01 7.213969999999999771e+00 4.309199999999999697e+00 8.359510000000000218e+00 7.213969999999999771e+00 5.987059999999999604e+00 1.221574000000000026e+01 7.213960000000000150e+00 7.282239999999999824e+00 8.359510000000000218e+00 7.213969999999999771e+00 8.960079999999999600e+00 1.221573000000000064e+01 7.213969999999999771e+00 1.085186999999999991e+01 8.803739999999999455e+00 1.144463999999999970e+01 3.610679999999999890e+00 1.265995999999999988e+01 1.144463000000000008e+01 3.363869999999999916e+00 1.012593000000000032e+01 9.692159999999999442e+00 4.905859999999999665e+00 8.803739999999999455e+00 1.144463000000000008e+01 6.583700000000000330e+00 1.265997999999999912e+01 1.144463999999999970e+01 6.336890000000000356e+00 1.012593000000000032e+01 9.692159999999999442e+00 7.878870000000000040e+00 8.803739999999999455e+00 1.144463000000000008e+01 9.556720000000000326e+00 1.265997999999999912e+01 1.144463000000000008e+01 9.309900000000000730e+00 1.012593999999999994e+01 9.692170000000000840e+00 8.753900000000000015e-01 1.309370999999999974e+01 1.230799999999999894e+00 3.848409999999999886e+00 1.309370999999999974e+01 1.230790000000000051e+00 6.821430000000000327e+00 1.309370999999999974e+01 1.230809999999999960e+00 1.004128000000000043e+01 1.562776000000000032e+01 2.983299999999999841e+00 2.553269999999999929e+00 1.694994000000000156e+01 1.230839999999999934e+00 4.095240000000000435e+00 1.562776000000000032e+01 2.983290000000000219e+00 5.526279999999999859e+00 1.694995000000000118e+01 1.230830000000000091e+00 7.068249999999999922e+00 1.562775000000000070e+01 2.983299999999999841e+00 8.499290000000000234e+00 1.694994000000000156e+01 1.230830000000000091e+00 1.472029999999999950e+00 1.353795000000000037e+01 5.461470000000000269e+00 4.445050000000000168e+00 1.353795000000000037e+01 5.461459999999999759e+00 7.418070000000000164e+00 1.353795000000000037e+01 5.461459999999999759e+00 3.149900000000000144e+00 1.739417999999999864e+01 5.461500000000000021e+00 6.122919999999999696e+00 1.739416999999999902e+01 5.461500000000000021e+00 9.095919999999999561e+00 1.739416999999999902e+01 5.461509999999999643e+00 1.063791999999999938e+01 1.607198999999999955e+01 7.213960000000000150e+00 4.691869999999999763e+00 1.607199999999999918e+01 7.213960000000000150e+00 7.664889999999999759e+00 1.607198999999999955e+01 7.213969999999999771e+00 2.068649999999999878e+00 1.398218999999999923e+01 9.692140000000000200e+00 5.041690000000000005e+00 1.398217999999999961e+01 9.692140000000000200e+00 8.014689999999999870e+00 1.398218999999999923e+01 9.692130000000000578e+00 1.123455000000000048e+01 1.651623000000000019e+01 1.144462000000000046e+01 3.746529999999999916e+00 1.783841999999999928e+01 9.692159999999999442e+00 5.288520000000000110e+00 1.651623000000000019e+01 1.144463000000000008e+01 6.719540000000000290e+00 1.783840999999999966e+01 9.692170000000000840e+00 8.261530000000000484e+00 1.651622000000000057e+01 1.144463000000000008e+01 9.692560000000000286e+00 1.783840999999999966e+01 9.692170000000000840e+00 1.042394999999999960e+01 2.334024000000000143e+01 2.983299999999999841e+00 4.477909999999999613e+00 2.334024000000000143e+01 2.983299999999999841e+00 7.450929999999999609e+00 2.334024000000000143e+01 2.983290000000000219e+00 2.800069999999999837e+00 1.948397999999999897e+01 2.983299999999999841e+00 1.258049999999999891e+00 2.080620000000000047e+01 1.230809999999999960e+00 5.773100000000000342e+00 1.948398999999999859e+01 2.983290000000000219e+00 4.231080000000000396e+00 2.080621000000000009e+01 1.230799999999999894e+00 8.746119999999999450e+00 1.948398999999999859e+01 2.983309999999999906e+00 7.204080000000000261e+00 2.080620000000000047e+01 1.230799999999999894e+00 1.854700000000000015e+00 2.125041999999999831e+01 5.461470000000000269e+00 4.827709999999999724e+00 2.125041999999999831e+01 5.461470000000000269e+00 7.800729999999999720e+00 2.125041999999999831e+01 5.461470000000000269e+00 1.102058000000000071e+01 2.378445999999999927e+01 7.213969999999999771e+00 5.074539999999999829e+00 2.378445999999999927e+01 7.213960000000000150e+00 8.047560000000000713e+00 2.378446999999999889e+01 7.213960000000000150e+00 3.396720000000000184e+00 1.992821999999999960e+01 7.213980000000000281e+00 6.369720000000000049e+00 1.992820999999999998e+01 7.213969999999999771e+00 9.342739999999999156e+00 1.992821999999999960e+01 7.213960000000000150e+00 1.161720000000000041e+01 2.422869000000000028e+01 1.144463999999999970e+01 5.671170000000000044e+00 2.422870999999999952e+01 1.144463999999999970e+01 8.644190000000000040e+00 2.422870999999999952e+01 1.144463000000000008e+01 3.993339999999999890e+00 2.037245000000000061e+01 1.144463000000000008e+01 2.451319999999999943e+00 2.169466999999999857e+01 9.692149999999999821e+00 6.966359999999999886e+00 2.037245000000000061e+01 1.144463999999999970e+01 5.424349999999999561e+00 2.169465999999999894e+01 9.692140000000000200e+00 9.939379999999999882e+00 2.037246000000000024e+01 1.144463999999999970e+01 8.397360000000000824e+00 2.169465999999999894e+01 9.692149999999999821e+00 4.248100000000000209e-01 2.792019999999999946e+00 2.107009999999999827e+00 1.867429999999999923e+00 3.849610000000000198e+00 7.733499999999999819e-01 7.813469999999999693e+00 3.849610000000000198e+00 7.733400000000000274e-01 3.397829999999999906e+00 2.792009999999999881e+00 2.107009999999999827e+00 4.840449999999999697e+00 3.849619999999999820e+00 7.733499999999999819e-01 6.370840000000000281e+00 2.792009999999999881e+00 2.107009999999999827e+00 9.579119999999999635e+00 5.590629999999999988e+00 3.440760000000000041e+00 1.955230000000000024e+00 1.734410000000000007e+00 3.440799999999999859e+00 3.633090000000000153e+00 5.590639999999999610e+00 3.440760000000000041e+00 4.928259999999999863e+00 1.734410000000000007e+00 3.440799999999999859e+00 6.606099999999999639e+00 5.590629999999999988e+00 3.440770000000000106e+00 7.901290000000000369e+00 1.734399999999999942e+00 3.440799999999999859e+00 1.021430000000000060e+00 3.236260000000000137e+00 6.337690000000000268e+00 2.464069999999999983e+00 4.293849999999999945e+00 5.004030000000000200e+00 8.410109999999999530e+00 4.293849999999999945e+00 5.004019999999999690e+00 3.994460000000000122e+00 3.236250000000000071e+00 6.337679999999999758e+00 5.437079999999999913e+00 4.293840000000000323e+00 5.004010000000000069e+00 6.967469999999999608e+00 3.236260000000000137e+00 6.337679999999999758e+00 1.017573999999999934e+01 6.034869999999999735e+00 7.671439999999999593e+00 2.551880000000000148e+00 2.178650000000000198e+00 7.671470000000000233e+00 4.229700000000000237e+00 6.034869999999999735e+00 7.671429999999999971e+00 5.524890000000000079e+00 2.178650000000000198e+00 7.671459999999999724e+00 7.202740000000000364e+00 6.034869999999999735e+00 7.671439999999999593e+00 8.497920000000000584e+00 2.178640000000000132e+00 7.671470000000000233e+00 3.060700000000000198e+00 4.738089999999999691e+00 9.234680000000000888e+00 9.006740000000000634e+00 4.738069999999999560e+00 9.234690000000000509e+00 6.033710000000000129e+00 4.738080000000000069e+00 9.234680000000000888e+00 1.618069999999999897e+00 3.680480000000000196e+00 1.056833999999999918e+01 1.077238999999999969e+01 6.479099999999999859e+00 1.190210000000000079e+01 3.148499999999999854e+00 2.622879999999999878e+00 1.190213999999999928e+01 4.591079999999999828e+00 3.680480000000000196e+00 1.056833999999999918e+01 4.826340000000000074e+00 6.479110000000000369e+00 1.190210000000000079e+01 6.121540000000000425e+00 2.622879999999999878e+00 1.190212000000000003e+01 7.564110000000000333e+00 3.680489999999999817e+00 1.056833999999999918e+01 7.799360000000000070e+00 6.479090000000000238e+00 1.190210000000000079e+01 9.094549999999999912e+00 2.622879999999999878e+00 1.190212000000000003e+01 2.102650000000000130e+00 6.648259999999999614e+00 2.107060000000000155e+00 5.075680000000000192e+00 6.648249999999999993e+00 2.107060000000000155e+00 8.048700000000000188e+00 6.648259999999999614e+00 2.107060000000000155e+00 8.074599999999999556e-01 1.050450000000000017e+01 2.107019999999999893e+00 5.722699999999999454e-01 7.705820000000000114e+00 7.733499999999999819e-01 3.780479999999999841e+00 1.050450000000000017e+01 2.107019999999999893e+00 3.545269999999999921e+00 7.705829999999999735e+00 7.733400000000000274e-01 6.753499999999999837e+00 1.050449000000000055e+01 2.107019999999999893e+00 6.518299999999999983e+00 7.705820000000000114e+00 7.733499999999999819e-01 2.250100000000000211e+00 1.156208999999999953e+01 7.733499999999999819e-01 5.223119999999999763e+00 1.156208999999999953e+01 7.733600000000000474e-01 8.196139999999999759e+00 1.156209999999999916e+01 7.733400000000000274e-01 2.337909999999999933e+00 9.446899999999999409e+00 3.440799999999999859e+00 5.310920000000000307e+00 9.446899999999999409e+00 3.440799999999999859e+00 8.283939999999999415e+00 9.446889999999999787e+00 3.440799999999999859e+00 2.699289999999999967e+00 7.092480000000000118e+00 6.337729999999999642e+00 5.672310000000000407e+00 7.092489999999999739e+00 6.337729999999999642e+00 8.645329999999999515e+00 7.092489999999999739e+00 6.337729999999999642e+00 1.404099999999999904e+00 1.094872999999999941e+01 6.337670000000000137e+00 1.168889999999999985e+00 8.150059999999999860e+00 5.004019999999999690e+00 4.377110000000000056e+00 1.094872999999999941e+01 6.337690000000000268e+00 4.141910000000000203e+00 8.150050000000000239e+00 5.004019999999999690e+00 7.350130000000000052e+00 1.094874000000000080e+01 6.337690000000000268e+00 7.114919999999999689e+00 8.150059999999999860e+00 5.004019999999999690e+00 2.846729999999999983e+00 1.200633000000000017e+01 5.004030000000000200e+00 5.819740000000000357e+00 1.200633000000000017e+01 5.004019999999999690e+00 8.792770000000000863e+00 1.200633000000000017e+01 5.004019999999999690e+00 2.934540000000000148e+00 9.891120000000000800e+00 7.671450000000000102e+00 5.907560000000000144e+00 9.891109999999999403e+00 7.671470000000000233e+00 8.880570000000000519e+00 9.891120000000000800e+00 7.671470000000000233e+00 1.765519999999999978e+00 8.594300000000000495e+00 9.234690000000000509e+00 4.738550000000000040e+00 8.594300000000000495e+00 9.234690000000000509e+00 7.711560000000000414e+00 8.594300000000000495e+00 9.234690000000000509e+00 3.443350000000000133e+00 1.245055999999999941e+01 9.234690000000000509e+00 6.416380000000000194e+00 1.245054999999999978e+01 9.234680000000000888e+00 9.389400000000000190e+00 1.245055999999999941e+01 9.234680000000000888e+00 3.295910000000000117e+00 7.536719999999999864e+00 1.056840000000000046e+01 6.268939999999999735e+00 7.536719999999999864e+00 1.056840000000000046e+01 9.241960000000000619e+00 7.536730000000000373e+00 1.056841000000000008e+01 2.000719999999999832e+00 1.139296000000000042e+01 1.056835000000000058e+01 3.531169999999999920e+00 1.033535000000000004e+01 1.190212999999999965e+01 4.973740000000000272e+00 1.139296000000000042e+01 1.056835000000000058e+01 6.504190000000000360e+00 1.033535999999999966e+01 1.190212999999999965e+01 7.946780000000000399e+00 1.139295000000000080e+01 1.056835000000000058e+01 9.477209999999999468e+00 1.033535000000000004e+01 1.190212000000000003e+01 6.900949999999999918e+00 1.541830999999999996e+01 7.733600000000000474e-01 2.485320000000000196e+00 1.436072000000000060e+01 2.107060000000000155e+00 3.927950000000000053e+00 1.541830999999999996e+01 7.733600000000000474e-01 5.458330000000000126e+00 1.436073999999999984e+01 2.107060000000000155e+00 9.549199999999999910e-01 1.541830000000000034e+01 7.733600000000000474e-01 8.431359999999999744e+00 1.436072000000000060e+01 2.107060000000000155e+00 9.961790000000000589e+00 1.330311999999999983e+01 3.440770000000000106e+00 4.015729999999999578e+00 1.330310000000000059e+01 3.440770000000000106e+00 6.988769999999999705e+00 1.330311000000000021e+01 3.440780000000000172e+00 2.720559999999999867e+00 1.715936999999999912e+01 3.440799999999999859e+00 5.693579999999999863e+00 1.715935999999999950e+01 3.440799999999999859e+00 8.666610000000000369e+00 1.715936999999999912e+01 3.440789999999999793e+00 7.497600000000000264e+00 1.586255000000000059e+01 5.004019999999999690e+00 3.081949999999999967e+00 1.480497000000000085e+01 6.337729999999999642e+00 4.524580000000000268e+00 1.586253999999999920e+01 5.004010000000000069e+00 6.054969999999999963e+00 1.480497000000000085e+01 6.337729999999999642e+00 1.551560000000000050e+00 1.586253999999999920e+01 5.004030000000000200e+00 9.027979999999999450e+00 1.480497000000000085e+01 6.337729999999999642e+00 1.055841000000000030e+01 1.374733999999999945e+01 7.671429999999999971e+00 4.612370000000000303e+00 1.374735000000000085e+01 7.671429999999999971e+00 7.585390000000000299e+00 1.374735000000000085e+01 7.671439999999999593e+00 3.317200000000000149e+00 1.760360000000000014e+01 7.671459999999999724e+00 6.290230000000000210e+00 1.760360000000000014e+01 7.671459999999999724e+00 9.263230000000000075e+00 1.760360000000000014e+01 7.671459999999999724e+00 8.094219999999999970e+00 1.630677000000000021e+01 9.234680000000000888e+00 5.121209999999999596e+00 1.630676000000000059e+01 9.234680000000000888e+00 2.148190000000000044e+00 1.630677999999999983e+01 9.234680000000000888e+00 1.115504999999999924e+01 1.419157000000000046e+01 1.190211000000000041e+01 3.678580000000000183e+00 1.524920000000000009e+01 1.056840000000000046e+01 5.209010000000000140e+00 1.419157000000000046e+01 1.190210000000000079e+01 6.651589999999999669e+00 1.524920000000000009e+01 1.056839000000000084e+01 8.182019999999999627e+00 1.419157000000000046e+01 1.190211000000000041e+01 9.624629999999999797e+00 1.524920999999999971e+01 1.056839000000000084e+01 3.913829999999999920e+00 1.804783000000000115e+01 1.190212000000000003e+01 6.886860000000000426e+00 1.804783000000000115e+01 1.190213999999999928e+01 9.859859999999999403e+00 1.804783000000000115e+01 1.190212000000000003e+01 1.190120000000000067e+00 1.821697999999999951e+01 2.107009999999999827e+00 2.632750000000000146e+00 1.927458000000000027e+01 7.733499999999999819e-01 2.867980000000000196e+00 2.207321999999999917e+01 2.107070000000000221e+00 4.163140000000000285e+00 1.821696999999999989e+01 2.107009999999999827e+00 5.605769999999999698e+00 1.927458000000000027e+01 7.733499999999999819e-01 5.841000000000000192e+00 2.207320999999999955e+01 2.107060000000000155e+00 7.136160000000000281e+00 1.821697999999999951e+01 2.107000000000000206e+00 8.578789999999999694e+00 1.927458000000000027e+01 7.733400000000000274e-01 8.814009999999999678e+00 2.207321999999999917e+01 2.107070000000000221e+00 1.337579999999999991e+00 2.313078000000000145e+01 7.733499999999999819e-01 7.283619999999999983e+00 2.313078000000000145e+01 7.733499999999999819e-01 4.310609999999999609e+00 2.313078000000000145e+01 7.733499999999999819e-01 1.034445000000000014e+01 2.101557999999999993e+01 3.440770000000000106e+00 4.398410000000000153e+00 2.101559999999999917e+01 3.440780000000000172e+00 7.371419999999999639e+00 2.101558999999999955e+01 3.440770000000000106e+00 1.786759999999999904e+00 1.866122000000000014e+01 6.337690000000000268e+00 3.229400000000000048e+00 1.971880000000000166e+01 5.004010000000000069e+00 3.464620000000000033e+00 2.251745000000000019e+01 6.337729999999999642e+00 4.759780000000000122e+00 1.866121000000000052e+01 6.337679999999999758e+00 6.202399999999999913e+00 1.971880000000000166e+01 5.004019999999999690e+00 6.437630000000000408e+00 2.251745000000000019e+01 6.337740000000000151e+00 7.732789999999999608e+00 1.866120000000000090e+01 6.337679999999999758e+00 9.175440000000000040e+00 1.971881000000000128e+01 5.004010000000000069e+00 9.410650000000000404e+00 2.251744000000000057e+01 6.337729999999999642e+00 1.934209999999999985e+00 2.357500999999999891e+01 5.004010000000000069e+00 7.880270000000000330e+00 2.357500999999999891e+01 5.004010000000000069e+00 4.907239999999999824e+00 2.357501999999999853e+01 5.004019999999999690e+00 1.094106999999999985e+01 2.145981000000000094e+01 7.671439999999999593e+00 4.995029999999999859e+00 2.145983000000000018e+01 7.671429999999999971e+00 7.968060000000000365e+00 2.145983000000000018e+01 7.671429999999999971e+00 3.826020000000000199e+00 2.016303999999999874e+01 9.234680000000000888e+00 6.799039999999999750e+00 2.016303999999999874e+01 9.234690000000000509e+00 9.772069999999999368e+00 2.016303999999999874e+01 9.234690000000000509e+00 2.530839999999999979e+00 2.401924999999999955e+01 9.234700000000000131e+00 8.476889999999999148e+00 2.401924999999999955e+01 9.234680000000000888e+00 5.503879999999999661e+00 2.401925999999999917e+01 9.234680000000000888e+00 2.383379999999999832e+00 1.910544000000000153e+01 1.056833999999999918e+01 1.153771000000000058e+01 2.190406000000000120e+01 1.190210000000000079e+01 4.061239999999999739e+00 2.296168000000000120e+01 1.056839000000000084e+01 5.356399999999999828e+00 1.910545000000000115e+01 1.056836000000000020e+01 5.591660000000000075e+00 2.190403999999999840e+01 1.190210000000000079e+01 7.034259999999999735e+00 2.296167000000000158e+01 1.056840000000000046e+01 8.329430000000000334e+00 1.910545000000000115e+01 1.056835000000000058e+01 8.564690000000000580e+00 2.190405000000000157e+01 1.190211000000000041e+01 1.000727999999999973e+01 2.296167000000000158e+01 1.056840000000000046e+01