-2.496149907580000217e+03
-2.496089312659999905e+03
-2.495981558989999940e+03
-2.495827300160000050e+03
-2.495627595980000024e+03
-2.495383851569999933e+03
-2.495097881839999900e+03
-2.494771780330000183e+03
-2.494408045090000087e+03
-2.494009285810000165e+03
