-3.967729999999999868e-01 -3.779739999999999767e-01 7.825910000000000366e-01 3.966979999999999951e-01 3.779669999999999974e-01 -7.826600000000000223e-01 3.958840000000000137e-01 3.786559999999999926e-01 -7.819989999999999997e-01 -3.965899999999999981e-01 -3.786109999999999753e-01 7.823419999999999819e-01 3.963309999999999889e-01 3.772460000000000258e-01 -7.826109999999999456e-01 3.961399999999999921e-01 3.791809999999999903e-01 -7.828680000000000083e-01 -3.967010000000000258e-01 -3.776959999999999762e-01 7.819169999999999732e-01 3.965230000000000143e-01 3.785600000000000076e-01 -7.824480000000000324e-01 3.960609999999999964e-01 3.793579999999999730e-01 -7.821989999999999776e-01 3.967209999999999903e-01 3.783920000000000061e-01 -7.825020000000000309e-01 3.954810000000000270e-01 3.789710000000000023e-01 -7.821139999999999759e-01 3.964520000000000266e-01 3.773610000000000020e-01 -7.826840000000000463e-01 3.963900000000000201e-01 3.793719999999999870e-01 -7.825729999999999631e-01 3.963940000000000241e-01 3.786999999999999811e-01 -7.824830000000000396e-01 3.959960000000000147e-01 3.795120000000000160e-01 -7.819589999999999597e-01 -3.970029999999999948e-01 -3.778290000000000259e-01 7.826539999999999608e-01 -3.965119999999999756e-01 -3.784429999999999739e-01 7.822930000000000161e-01 -3.966839999999999811e-01 -3.776499999999999857e-01 7.821639999999999704e-01 -3.968599999999999905e-01 -3.778090000000000059e-01 7.827009999999999801e-01 3.965440000000000076e-01 3.783619999999999761e-01 -7.822740000000000249e-01 3.957010000000000249e-01 3.786510000000000153e-01 -7.822350000000000136e-01 -3.966330000000000133e-01 -3.785999999999999921e-01 7.823259999999999659e-01 3.962220000000000186e-01 3.773889999999999745e-01 -7.824499999999999789e-01 3.961049999999999849e-01 3.792719999999999980e-01 -7.826520000000000143e-01 -3.968690000000000273e-01 -3.776979999999999782e-01 7.818140000000000089e-01 3.965790000000000148e-01 3.787369999999999903e-01 -7.822510000000000296e-01 3.960839999999999916e-01 3.794339999999999935e-01 -7.818640000000000034e-01 -3.963099999999999956e-01 -3.786880000000000246e-01 7.826899999999999968e-01 -3.969300000000000050e-01 -3.786689999999999778e-01 7.824750000000000316e-01 3.960489999999999844e-01 3.783309999999999729e-01 -7.825229999999999686e-01 -3.957720000000000127e-01 -3.790930000000000133e-01 7.819629999999999637e-01 -3.969230000000000258e-01 -3.785060000000000091e-01 7.817399999999999904e-01 3.963409999999999989e-01 3.776169999999999805e-01 -7.824400000000000244e-01 -3.957129999999999814e-01 -3.787510000000000043e-01 7.824729999999999741e-01 -3.959300000000000042e-01 -3.781499999999999861e-01 7.819939999999999669e-01 3.963769999999999794e-01 3.787530000000000063e-01 -7.829040000000000443e-01 3.960239999999999871e-01 3.780160000000000187e-01 -7.829880000000000173e-01 3.961080000000000156e-01 3.779060000000000197e-01 -7.824839999999999574e-01 3.962459999999999871e-01 3.785080000000000111e-01 -7.831989999999999785e-01 -3.963789999999999814e-01 -3.787809999999999788e-01 7.824269999999999836e-01 -3.970319999999999960e-01 -3.786359999999999726e-01 7.822430000000000216e-01 -3.958720000000000017e-01 -3.790720000000000200e-01 7.817579999999999529e-01 -3.967919999999999781e-01 -3.783469999999999889e-01 7.819120000000000514e-01 -3.956109999999999904e-01 -3.789270000000000138e-01 7.824189999999999756e-01 -3.959010000000000029e-01 -3.782380000000000186e-01 7.818230000000000457e-01 -3.962370000000000059e-01 -3.789609999999999923e-01 7.824330000000000451e-01 -3.969849999999999768e-01 -3.785560000000000036e-01 7.824050000000000171e-01 3.958490000000000064e-01 3.782710000000000239e-01 -7.827549999999999786e-01 -3.960460000000000091e-01 -3.790709999999999913e-01 7.819439999999999724e-01 -3.966790000000000038e-01 -3.786829999999999918e-01 7.819329999999999892e-01 3.963329999999999909e-01 3.778469999999999884e-01 -7.824050000000000171e-01 -3.956740000000000257e-01 -3.790430000000000188e-01 7.823579999999999979e-01 -3.959630000000000094e-01 -3.783199999999999896e-01 7.821099999999999719e-01 3.964369999999999838e-01 3.784680000000000266e-01 -7.831759999999999833e-01 3.967209999999999903e-01 3.791289999999999938e-01 -7.822299999999999809e-01 3.966770000000000018e-01 3.791680000000000050e-01 -7.817070000000000407e-01 3.960529999999999884e-01 3.786450000000000093e-01 -7.818939999999999779e-01 -3.961790000000000034e-01 -3.783730000000000149e-01 7.825849999999999751e-01 3.957319999999999727e-01 3.788250000000000228e-01 -7.827600000000000113e-01 -3.965110000000000023e-01 -3.775379999999999847e-01 7.821839999999999904e-01 3.962689999999999824e-01 3.781269999999999909e-01 -7.828180000000000138e-01 -3.965060000000000251e-01 -3.777320000000000122e-01 7.827650000000000441e-01 3.960509999999999864e-01 3.774939999999999962e-01 -7.826119999999999743e-01 3.965879999999999961e-01 3.791010000000000213e-01 -7.824719999999999454e-01 3.964309999999999778e-01 3.792479999999999740e-01 -7.817110000000000447e-01 3.961279999999999801e-01 3.785290000000000044e-01 -7.818140000000000089e-01 3.958200000000000052e-01 3.785709999999999908e-01 -7.825900000000000079e-01 3.961129999999999929e-01 3.782949999999999924e-01 -7.826079999999999703e-01 3.961350000000000149e-01 3.772889999999999855e-01 -7.827159999999999673e-01 -3.962939999999999796e-01 -3.781419999999999781e-01 7.824889999999999901e-01 -3.964329999999999798e-01 -3.776070000000000260e-01 7.819810000000000372e-01 -3.965940000000000021e-01 -3.776340000000000252e-01 7.827399999999999913e-01 3.968760000000000066e-01 3.790569999999999773e-01 -7.824619999999999909e-01 3.962840000000000251e-01 3.791340000000000265e-01 -7.820129999999999582e-01 3.961669999999999914e-01 3.785350000000000104e-01 -7.819739999999999469e-01 -3.962260000000000226e-01 -3.781689999999999774e-01 7.827089999999999881e-01 3.958619999999999917e-01 3.787940000000000196e-01 -7.824210000000000331e-01 -3.966310000000000113e-01 -3.774279999999999857e-01 7.821010000000000462e-01 3.963209999999999789e-01 3.782530000000000059e-01 -7.825790000000000246e-01 -3.967579999999999996e-01 -3.773969999999999825e-01 7.828669999999999796e-01 3.958880000000000177e-01 3.773980000000000112e-01 -7.825239999999999974e-01 -3.965480000000000116e-01 -3.788710000000000133e-01 7.819430000000000547e-01 -3.956290000000000084e-01 -3.786780000000000146e-01 7.820000000000000284e-01 -3.968709999999999738e-01 -3.789669999999999983e-01 7.823520000000000474e-01 -3.958280000000000132e-01 -3.791919999999999735e-01 7.822040000000000104e-01 3.967609999999999748e-01 3.779429999999999734e-01 -7.823839999999999684e-01 -3.967430000000000123e-01 -3.789629999999999943e-01 7.824259999999999549e-01 3.966040000000000121e-01 3.789310000000000178e-01 -7.827830000000000066e-01 -3.964260000000000006e-01 -3.793119999999999825e-01 7.814940000000000220e-01 3.965810000000000168e-01 3.783340000000000036e-01 -7.823459999999999859e-01 3.967220000000000191e-01 3.779850000000000154e-01 -7.821339999999999959e-01 3.968180000000000041e-01 3.789850000000000163e-01 -7.825990000000000446e-01 3.961819999999999786e-01 3.785140000000000171e-01 -7.823149999999999826e-01 -3.964799999999999991e-01 -3.785410000000000164e-01 7.820859999999999479e-01 -3.957209999999999894e-01 -3.783389999999999809e-01 7.823839999999999684e-01 -3.967069999999999763e-01 -3.789640000000000231e-01 7.824160000000000004e-01 -3.960899999999999976e-01 -3.791340000000000265e-01 7.821420000000000039e-01 -3.965000000000000191e-01 -3.789159999999999751e-01 7.824579999999999869e-01 -3.963160000000000016e-01 -3.791880000000000250e-01 7.818739999999999579e-01 -3.964989999999999903e-01 -3.786140000000000061e-01 7.820519999999999694e-01 -3.955400000000000027e-01 -3.786439999999999806e-01 7.821069999999999967e-01 -3.968610000000000193e-01 -3.789640000000000231e-01 7.823219999999999619e-01 -3.959719999999999906e-01 -3.790430000000000188e-01 7.822449999999999681e-01 3.967979999999999841e-01 3.778440000000000132e-01 -7.821970000000000312e-01 -3.966950000000000198e-01 -3.789560000000000151e-01 7.822780000000000289e-01 3.966259999999999786e-01 3.790160000000000196e-01 -7.825490000000000501e-01 -3.963099999999999956e-01 -3.792039999999999855e-01 7.817239999999999744e-01 3.963380000000000236e-01 3.784290000000000154e-01 -7.823470000000000146e-01 1.410000000000000120e-04 -6.019999999999999961e-04 -7.849999999999999990e-04 -3.565829999999999833e-01 1.655167000000000055e+00 -1.300661999999999985e+00 -3.572110000000000007e-01 1.654776000000000025e+00 -1.300624999999999920e+00 9.009999999999999997e-04 -1.369999999999999961e-04 -6.509999999999999945e-04 -3.568379999999999885e-01 1.654832999999999998e+00 -1.300232999999999972e+00 6.499999999999999702e-04 -5.850000000000000165e-04 -1.213000000000000102e-03 3.562080000000000246e-01 -1.656266999999999934e+00 1.299074000000000062e+00 3.565360000000000196e-01 -1.654816999999999982e+00 1.297786000000000106e+00 3.565320000000000156e-01 -1.656474999999999920e+00 1.299361999999999906e+00 3.560240000000000071e-01 -1.655356999999999967e+00 1.297732000000000108e+00 3.567020000000000191e-01 -1.656593999999999900e+00 1.298902999999999919e+00 3.568259999999999765e-01 -1.654571999999999932e+00 1.297577999999999898e+00 5.869999999999999567e-04 -1.224000000000000045e-03 1.832999999999999994e-03 -3.568339999999999845e-01 1.655812000000000062e+00 -1.299989000000000061e+00 -3.575639999999999930e-01 1.655518999999999963e+00 -1.300359999999999960e+00 9.759999999999999796e-04 -4.899999999999999842e-04 1.988999999999999883e-03 -3.567029999999999923e-01 1.655685999999999991e+00 -1.299595999999999973e+00 5.419999999999999471e-04 -1.064000000000000059e-03 1.417999999999999990e-03 3.562159999999999771e-01 -1.656689999999999996e+00 1.300488000000000088e+00 3.562730000000000063e-01 -1.655324000000000018e+00 1.300318000000000085e+00 3.571309999999999762e-01 -1.656806000000000001e+00 1.300782000000000105e+00 3.563250000000000028e-01 -1.655521000000000020e+00 1.300319999999999920e+00 3.565780000000000061e-01 -1.656976000000000004e+00 1.300373999999999919e+00 3.567980000000000040e-01 -1.654771999999999910e+00 1.299994000000000094e+00 -3.569089999999999763e-01 1.654924000000000062e+00 -1.298121999999999998e+00 -3.571420000000000150e-01 1.655159000000000047e+00 -1.299009000000000080e+00 -3.565800000000000081e-01 1.654949000000000003e+00 -1.298200999999999938e+00 2.369999999999999874e-04 -9.749999999999999552e-04 1.626999999999999974e-03 3.560220000000000051e-01 -1.657486999999999933e+00 1.299846999999999975e+00 3.563370000000000148e-01 -1.655105000000000048e+00 1.298742999999999981e+00 1.248999999999999893e-03 -7.569999999999999689e-04 2.033000000000000085e-03 3.567549999999999888e-01 -1.657189000000000023e+00 1.300103999999999926e+00 3.558279999999999776e-01 -1.655394999999999950e+00 1.298948999999999909e+00 3.390000000000000001e-04 -1.257000000000000088e-03 1.498999999999999898e-03 3.568479999999999985e-01 -1.657188000000000105e+00 1.299390000000000045e+00 3.567190000000000083e-01 -1.655073999999999934e+00 1.298882000000000092e+00 4.479999999999999933e-04 1.469999999999999953e-04 -9.659999999999999533e-04 -3.640000000000000115e-04 5.469999999999999602e-04 -1.075999999999999917e-03 6.049999999999999606e-04 3.690000000000000246e-04 -1.495999999999999934e-03 3.469999999999999777e-04 4.650000000000000270e-04 -1.330000000000000073e-04 -3.567330000000000223e-01 1.656220999999999943e+00 -1.301220000000000043e+00 1.376999999999999969e-03 -3.499999999999999964e-04 5.450000000000000200e-04 -3.566130000000000133e-01 1.656342999999999899e+00 -1.300891999999999937e+00 9.359999999999999831e-04 1.299999999999999886e-04 5.299999999999999807e-04 -3.569129999999999803e-01 1.655777000000000054e+00 -1.301148999999999889e+00 -3.570439999999999725e-01 1.656681000000000070e+00 -1.300421000000000049e+00 -3.569089999999999763e-01 1.656446000000000085e+00 -1.300361000000000100e+00 -3.573529999999999762e-01 1.656951999999999980e+00 -1.299898999999999916e+00 3.568930000000000158e-01 -1.654682999999999904e+00 1.299004000000000048e+00 3.559939999999999771e-01 -1.654705000000000092e+00 1.298756000000000022e+00 3.565760000000000041e-01 -1.654792999999999958e+00 1.299198000000000075e+00 -2.439999999999999949e-04 -1.800000000000000046e-05 3.730000000000000134e-04 -4.130000000000000099e-04 -2.809999999999999998e-04 7.190000000000000210e-04 7.020000000000000415e-04 6.099999999999999872e-05 9.799999999999999684e-05 1.110000000000000011e-04 2.400000000000000061e-05 7.299999999999999632e-04 -3.564640000000000031e-01 1.656546000000000074e+00 -1.300998000000000099e+00 1.191000000000000001e-03 -9.700000000000000505e-04 1.124999999999999915e-03 -3.569880000000000275e-01 1.656743999999999994e+00 -1.300915999999999961e+00 8.000000000000000383e-04 -4.040000000000000080e-04 1.361000000000000014e-03 -3.564620000000000011e-01 1.656266000000000016e+00 -1.301279999999999992e+00 -3.571219999999999950e-01 1.656393999999999922e+00 -1.300858000000000070e+00 -3.567440000000000055e-01 1.655909999999999993e+00 -1.300511999999999890e+00 -3.572910000000000252e-01 1.656565000000000065e+00 -1.300464000000000064e+00 3.568120000000000180e-01 -1.655124999999999957e+00 1.299682999999999922e+00 3.562219999999999831e-01 -1.654870999999999981e+00 1.299458999999999920e+00 3.565949999999999953e-01 -1.654976000000000003e+00 1.299592999999999998e+00 -3.565989999999999993e-01 1.656109999999999971e+00 -1.300113000000000074e+00 -3.570409999999999973e-01 1.656025000000000080e+00 -1.299792000000000058e+00 -3.566900000000000071e-01 1.655659999999999910e+00 -1.300070000000000059e+00 -3.569160000000000110e-01 1.656247999999999942e+00 -1.299547999999999925e+00 -3.565940000000000221e-01 1.655887000000000109e+00 -1.299522000000000066e+00 -3.573209999999999997e-01 1.656360999999999972e+00 -1.299180999999999919e+00 4.249999999999999763e-04 -6.660000000000000338e-04 5.609999999999999752e-04 -2.139999999999999975e-04 -6.019999999999999961e-04 8.390000000000000105e-04 5.100000000000000366e-04 -7.619999999999999820e-04 9.200000000000000007e-05 6.199999999999999999e-04 2.539999999999999940e-04 7.410000000000000137e-04 3.568700000000000205e-01 -1.654854999999999965e+00 1.299090999999999996e+00 1.340999999999999961e-03 -7.089999999999999948e-04 1.505000000000000044e-03 3.560440000000000271e-01 -1.654803999999999942e+00 1.299296999999999924e+00 2.559999999999999884e-04 1.740000000000000010e-04 1.546999999999999981e-03 3.564320000000000266e-01 -1.654843999999999982e+00 1.299584000000000072e+00 -3.564760000000000151e-01 1.656304999999999916e+00 -1.300497000000000014e+00 8.399999999999999535e-05 3.849999999999999798e-04 -1.172000000000000082e-03 -3.573509999999999742e-01 1.655968000000000107e+00 -1.301037999999999917e+00 1.399999999999999877e-04 -2.919999999999999961e-04 -4.040000000000000080e-04 -3.563879999999999826e-01 1.656171000000000060e+00 -1.300524999999999931e+00 3.049999999999999868e-04 4.730000000000000046e-04 -3.570000000000000040e-04 3.561400000000000121e-01 -1.655532000000000004e+00 1.298869999999999969e+00 3.571590000000000042e-01 -1.654797000000000073e+00 1.298721000000000014e+00 3.564669999999999783e-01 -1.654935000000000045e+00 1.298491999999999980e+00 3.566179999999999906e-01 -1.655658999999999992e+00 1.297938999999999954e+00 3.561929999999999819e-01 -1.655353000000000074e+00 1.297995999999999928e+00 3.565579999999999861e-01 -1.655796000000000046e+00 1.298367000000000049e+00 -3.564499999999999891e-01 1.655701000000000089e+00 -1.300672000000000050e+00 2.889999999999999774e-04 -4.470000000000000232e-04 -6.999999999999999387e-05 -3.573580000000000090e-01 1.655440999999999940e+00 -1.300728000000000106e+00 -3.620000000000000171e-04 -7.519999999999999558e-04 4.859999999999999954e-04 -3.564860000000000251e-01 1.655794999999999906e+00 -1.300399000000000083e+00 7.560000000000000530e-04 -1.669999999999999935e-04 6.250000000000000130e-04 3.563310000000000088e-01 -1.655799999999999939e+00 1.300064000000000108e+00 3.570019999999999860e-01 -1.655318000000000067e+00 1.300084999999999935e+00 3.564030000000000253e-01 -1.655696000000000057e+00 1.300219999999999931e+00 3.564579999999999971e-01 -1.655648000000000009e+00 1.299851000000000090e+00 3.559749999999999859e-01 -1.655678999999999901e+00 1.300197000000000047e+00 3.566610000000000058e-01 -1.655758000000000063e+00 1.300149999999999917e+00 -3.565030000000000143e-01 1.655993999999999966e+00 -1.298667999999999934e+00 -3.570059999999999900e-01 1.655750999999999973e+00 -1.299112000000000045e+00 -3.561969999999999859e-01 1.655937999999999910e+00 -1.298740999999999923e+00 3.561259999999999981e-01 -1.655135999999999941e+00 1.299862999999999991e+00 1.810000000000000085e-04 -1.949999999999999965e-04 1.025000000000000086e-03 3.566050000000000053e-01 -1.654689999999999994e+00 1.300113000000000074e+00 1.269999999999999970e-04 -5.500000000000000196e-05 1.162000000000000055e-03 3.566650000000000098e-01 -1.654690999999999912e+00 1.299868999999999941e+00 4.400000000000000157e-04 7.899999999999999579e-05 1.928999999999999942e-03 3.565490000000000048e-01 -1.655431000000000097e+00 1.299711000000000061e+00 3.562029999999999919e-01 -1.655141999999999891e+00 1.299471000000000043e+00 3.565800000000000081e-01 -1.655326999999999993e+00 1.299870000000000081e+00 2.680000000000000090e-04 -8.809999999999999472e-04 -5.100000000000000366e-04 -3.565780000000000061e-01 1.656004999999999949e+00 -1.301339999999999941e+00 4.009999999999999893e-04 2.550000000000000183e-04 -1.356000000000000000e-03 7.860000000000000233e-04 -4.449999999999999746e-04 -8.090000000000000403e-04 -3.564959999999999796e-01 1.656457000000000068e+00 -1.301323000000000008e+00 -4.240000000000000062e-04 6.780000000000000002e-04 -1.832999999999999994e-03 5.190000000000000386e-04 -8.620000000000000275e-04 -6.729999999999999871e-04 -3.569339999999999735e-01 1.656481000000000092e+00 -1.301101999999999981e+00 6.679999999999999740e-04 -4.279999999999999950e-04 -1.286999999999999950e-03 -3.564269999999999938e-01 1.654741999999999935e+00 -1.300327000000000011e+00 -3.568359999999999865e-01 1.655399000000000065e+00 -1.300918000000000019e+00 -3.571639999999999815e-01 1.655629000000000017e+00 -1.300362999999999936e+00 3.563189999999999968e-01 -1.654444999999999943e+00 1.297547000000000006e+00 3.565530000000000088e-01 -1.654746000000000050e+00 1.297352000000000061e+00 3.571070000000000078e-01 -1.654846999999999957e+00 1.297342999999999913e+00 6.399999999999999710e-05 -1.724999999999999971e-03 1.773999999999999969e-03 -3.568160000000000220e-01 1.656082999999999972e+00 -1.301115000000000022e+00 -2.849999999999999886e-04 3.119999999999999944e-04 1.392000000000000008e-03 8.859999999999999603e-04 -1.539999999999999919e-03 1.492000000000000054e-03 -3.563180000000000236e-01 1.656549999999999967e+00 -1.301284000000000107e+00 8.200000000000000095e-05 3.989999999999999949e-04 8.159999999999999936e-04 4.479999999999999933e-04 -1.291999999999999963e-03 1.634000000000000036e-03 -3.571699999999999875e-01 1.656290999999999958e+00 -1.300720000000000098e+00 3.809999999999999910e-04 -2.880000000000000073e-04 1.510000000000000057e-03 -3.564470000000000138e-01 1.655405000000000015e+00 -1.300000000000000044e+00 -3.571659999999999835e-01 1.655952000000000091e+00 -1.300137000000000098e+00 -3.572449999999999792e-01 1.656320000000000014e+00 -1.300037000000000109e+00 3.564869999999999983e-01 -1.654614000000000029e+00 1.300383000000000067e+00 3.570240000000000080e-01 -1.655046000000000017e+00 1.300696000000000074e+00 3.571070000000000078e-01 -1.655114999999999892e+00 1.300451000000000024e+00 -3.566340000000000066e-01 1.656111000000000111e+00 -1.298961999999999950e+00 -3.564530000000000198e-01 1.656552000000000024e+00 -1.299001000000000072e+00 -3.573819999999999775e-01 1.656686000000000103e+00 -1.299117999999999995e+00 -3.565860000000000141e-01 1.655353999999999992e+00 -1.298931000000000058e+00 -3.570729999999999738e-01 1.655429999999999957e+00 -1.298373999999999917e+00 -3.573799999999999755e-01 1.655901000000000067e+00 -1.298489000000000004e+00 3.449999999999999833e-04 -1.410999999999999928e-03 2.824999999999999820e-03 3.565429999999999988e-01 -1.655200000000000005e+00 1.299649999999999972e+00 2.860000000000000129e-04 -3.829999999999999854e-04 1.737999999999999962e-03 1.147000000000000016e-03 -9.870000000000000301e-04 2.008999999999999935e-03 3.567989999999999773e-01 -1.655219999999999914e+00 1.299549000000000065e+00 -6.499999999999999431e-05 1.930000000000000021e-04 1.023999999999999954e-03 2.249999999999999938e-04 -1.317999999999999944e-03 2.311999999999999819e-03 3.569939999999999780e-01 -1.655183000000000071e+00 1.299137999999999904e+00 7.299999999999999903e-05 -5.890000000000000053e-04 1.559999999999999972e-03