2.204180000000000028e+00 3.110139999999999905e+00 4.203750000000000320e+00 8.515269999999999229e+00 3.416249999999999787e+00 1.925650000000000084e+00 1.685529999999999973e+00 1.185380000000000100e+00 1.925669999999999993e+00 4.854729999999999990e+00 3.110129999999999839e+00 4.203750000000000320e+00 3.214170000000000194e+00 3.416269999999999918e+00 1.925650000000000084e+00 4.336100000000000065e+00 1.185380000000000100e+00 1.925659999999999927e+00 7.505279999999999951e+00 3.110129999999999839e+00 4.203750000000000320e+00 5.864720000000000155e+00 3.416269999999999918e+00 1.925659999999999927e+00 6.986640000000000406e+00 1.185380000000000100e+00 1.925680000000000058e+00 1.082270000000000065e+00 5.341029999999999944e+00 4.203759999999999941e+00 2.610920000000000130e+00 7.571909999999999918e+00 4.203750000000000320e+00 2.092290000000000205e+00 5.647160000000000402e+00 1.925669999999999993e+00 3.732819999999999805e+00 5.341039999999999566e+00 4.203769999999999563e+00 5.261459999999999582e+00 7.571909999999999918e+00 4.203750000000000320e+00 4.742820000000000036e+00 5.647140000000000271e+00 1.925669999999999993e+00 6.383379999999999832e+00 5.341039999999999566e+00 4.203769999999999563e+00 7.912020000000000053e+00 7.571909999999999918e+00 4.203750000000000320e+00 7.393379999999999619e+00 5.647140000000000271e+00 1.925680000000000058e+00 9.486869999999999692e+00 4.742539999999999978e+00 8.079169999999999519e+00 2.657150000000000123e+00 2.511660000000000004e+00 8.079190000000000538e+00 4.185769999999999769e+00 4.742539999999999978e+00 8.079179999999999140e+00 5.307710000000000150e+00 2.511670000000000069e+00 8.079179999999999140e+00 6.836330000000000240e+00 4.742539999999999978e+00 8.079169999999999519e+00 7.958260000000000112e+00 2.511660000000000004e+00 8.079200000000000159e+00 3.063889999999999780e+00 6.973440000000000083e+00 8.079200000000000159e+00 5.714450000000000252e+00 6.973440000000000083e+00 8.079190000000000538e+00 8.365000000000000213e+00 6.973449999999999704e+00 8.079200000000000159e+00 3.175790000000000113e+00 4.436420000000000030e+00 1.035727999999999938e+01 5.826340000000000074e+00 4.436429999999999652e+00 1.035727999999999938e+01 8.476879999999999526e+00 4.436429999999999652e+00 1.035726999999999975e+01 2.053889999999999993e+00 6.667320000000000135e+00 1.035729000000000077e+01 3.582520000000000149e+00 8.898189999999999600e+00 1.035726999999999975e+01 4.704430000000000334e+00 6.667329999999999757e+00 1.035729000000000077e+01 6.233069999999999666e+00 8.898210000000000619e+00 1.035726999999999975e+01 7.354980000000000295e+00 6.667320000000000135e+00 1.035729000000000077e+01 8.883630000000000138e+00 8.898189999999999600e+00 1.035726999999999975e+01 4.147409999999999819e+00 5.762699999999999712e+00 1.651079999999999970e+01 1.045848999999999940e+01 6.068819999999999659e+00 1.423271000000000086e+01 3.628760000000000208e+00 3.837940000000000129e+00 1.423272000000000048e+01 6.797950000000000159e+00 5.762699999999999712e+00 1.651080999999999932e+01 5.157379999999999853e+00 6.068839999999999790e+00 1.423269999999999946e+01 6.279309999999999725e+00 3.837940000000000129e+00 1.423271000000000086e+01 9.448499999999999233e+00 5.762710000000000221e+00 1.651079999999999970e+01 7.807929999999999815e+00 6.068830000000000169e+00 1.423268999999999984e+01 8.929869999999999308e+00 3.837940000000000129e+00 1.423272000000000048e+01 3.025490000000000013e+00 7.993610000000000326e+00 1.651081999999999894e+01 4.554129999999999789e+00 1.022448999999999941e+01 1.651079999999999970e+01 4.035499999999999865e+00 8.299720000000000653e+00 1.423271000000000086e+01 5.676050000000000040e+00 7.993619999999999948e+00 1.651080999999999932e+01 7.204699999999999882e+00 1.022447999999999979e+01 1.651079999999999970e+01 6.686049999999999827e+00 8.299720000000000653e+00 1.423272000000000048e+01 8.326599999999999113e+00 7.993610000000000326e+00 1.651080999999999932e+01 9.855240000000000222e+00 1.022447999999999979e+01 1.651080999999999932e+01 9.336600000000000676e+00 8.299730000000000274e+00 1.423272000000000048e+01 1.895739999999999981e+00 1.426459000000000010e+01 4.203759999999999941e+00 4.546289999999999942e+00 1.426459000000000010e+01 4.203769999999999563e+00 7.196850000000000414e+00 1.426459999999999972e+01 4.203759999999999941e+00 8.922010000000000218e+00 7.878029999999999866e+00 1.925659999999999927e+00 3.620909999999999851e+00 7.878040000000000376e+00 1.925659999999999927e+00 6.271460000000000257e+00 7.878029999999999866e+00 1.925659999999999927e+00 1.489009999999999945e+00 9.802820000000000533e+00 4.203769999999999563e+00 3.017659999999999787e+00 1.203368000000000038e+01 4.203750000000000320e+00 9.328749999999999432e+00 1.233980999999999995e+01 1.925650000000000084e+00 2.499019999999999797e+00 1.010891999999999946e+01 1.925659999999999927e+00 4.139560000000000350e+00 9.802820000000000533e+00 4.203759999999999941e+00 5.668210000000000193e+00 1.203369000000000000e+01 4.203750000000000320e+00 4.027630000000000265e+00 1.233981999999999957e+01 1.925650000000000084e+00 5.149569999999999759e+00 1.010893000000000086e+01 1.925680000000000058e+00 6.790110000000000312e+00 9.802820000000000533e+00 4.203769999999999563e+00 8.318749999999999645e+00 1.203369000000000000e+01 4.203759999999999941e+00 6.678189999999999849e+00 1.233980000000000032e+01 1.925659999999999927e+00 7.800119999999999720e+00 1.010893000000000086e+01 1.925680000000000058e+00 9.893610000000000682e+00 9.204319999999999169e+00 8.079169999999999519e+00 4.592509999999999870e+00 9.204309999999999548e+00 8.079179999999999140e+00 7.243059999999999832e+00 9.204319999999999169e+00 8.079169999999999519e+00 1.030034000000000027e+01 1.366609000000000052e+01 8.079190000000000538e+00 3.470619999999999816e+00 1.143520999999999965e+01 8.079200000000000159e+00 4.999240000000000350e+00 1.366610000000000014e+01 8.079179999999999140e+00 6.121170000000000222e+00 1.143521999999999927e+01 8.079179999999999140e+00 7.649799999999999933e+00 1.366610000000000014e+01 8.079179999999999140e+00 8.771739999999999426e+00 1.143520000000000003e+01 8.079190000000000538e+00 2.867350000000000065e+00 1.559087000000000067e+01 1.035730000000000040e+01 5.517909999999999648e+00 1.559088000000000029e+01 1.035727999999999938e+01 8.168449999999999989e+00 1.559087000000000067e+01 1.035729000000000077e+01 2.460620000000000029e+00 1.112911000000000072e+01 1.035729000000000077e+01 3.989269999999999872e+00 1.335995999999999917e+01 1.035727999999999938e+01 5.111180000000000057e+00 1.112908999999999970e+01 1.035730000000000040e+01 6.639809999999999768e+00 1.335997000000000057e+01 1.035727999999999938e+01 7.761730000000000018e+00 1.112911000000000072e+01 1.035729000000000077e+01 9.290359999999999729e+00 1.335997000000000057e+01 1.035727999999999938e+01 3.838960000000000150e+00 1.691715999999999909e+01 1.651080999999999932e+01 6.489510000000000112e+00 1.691715999999999909e+01 1.651080999999999932e+01 9.140060000000000073e+00 1.691715999999999909e+01 1.651081999999999894e+01 1.086522000000000077e+01 1.053059999999999974e+01 1.423271000000000086e+01 5.564119999999999955e+00 1.053060999999999936e+01 1.423268999999999984e+01 8.214669999999999916e+00 1.053060999999999936e+01 1.423268999999999984e+01 3.432240000000000180e+00 1.245537999999999990e+01 1.651081999999999894e+01 4.960869999999999891e+00 1.468624999999999936e+01 1.651079999999999970e+01 1.127196999999999960e+01 1.499238000000000071e+01 1.423271000000000086e+01 4.442230000000000345e+00 1.276149999999999984e+01 1.423271000000000086e+01 6.082770000000000010e+00 1.245538999999999952e+01 1.651080999999999932e+01 7.611430000000000362e+00 1.468624999999999936e+01 1.651079999999999970e+01 5.970869999999999678e+00 1.499239000000000033e+01 1.423269999999999946e+01 7.092780000000000307e+00 1.276149999999999984e+01 1.423273000000000010e+01 8.733330000000000481e+00 1.245537999999999990e+01 1.651080999999999932e+01 1.026197999999999944e+01 1.468624999999999936e+01 1.651079000000000008e+01 8.621420000000000528e+00 1.499238000000000071e+01 1.423271000000000086e+01 9.743339999999999890e+00 1.276149000000000022e+01 1.423271000000000086e+01 6.195800000000000196e-01 2.147769999999999957e+00 3.064719999999999889e+00 8.920920000000000627e+00 3.985520000000000174e+00 5.241729999999999556e+00 1.798589999999999911e+00 2.540900000000000158e+00 8.877199999999999536e-01 2.699500000000000233e-01 3.100200000000000178e-01 8.877300000000000191e-01 2.148249999999999993e+00 4.378659999999999997e+00 3.064729999999999954e+00 2.091180000000000039e+00 1.754650000000000043e+00 5.241749999999999687e+00 3.270129999999999981e+00 2.147769999999999957e+00 3.064729999999999954e+00 3.619810000000000194e+00 3.985529999999999795e+00 5.241740000000000066e+00 4.449130000000000251e+00 2.540919999999999845e+00 8.877300000000000191e-01 2.920500000000000096e+00 3.100100000000000078e-01 8.877199999999999536e-01 4.798790000000000333e+00 4.378669999999999618e+00 3.064729999999999954e+00 4.741719999999999935e+00 1.754650000000000043e+00 5.241749999999999687e+00 5.920689999999999564e+00 2.147769999999999957e+00 3.064709999999999823e+00 6.270369999999999777e+00 3.985520000000000174e+00 5.241729999999999556e+00 7.099680000000000213e+00 2.540900000000000158e+00 8.877300000000000191e-01 5.571049999999999613e+00 3.100100000000000078e-01 8.877199999999999536e-01 7.449340000000000295e+00 4.378659999999999997e+00 3.064750000000000085e+00 7.392280000000000406e+00 1.754660000000000108e+00 5.241749999999999687e+00 1.026319999999999899e+00 6.609549999999999592e+00 3.064729999999999954e+00 6.766799999999999482e-01 4.771799999999999820e+00 8.877199999999999536e-01 2.497900000000000009e+00 6.216420000000000279e+00 5.241740000000000066e+00 3.676870000000000083e+00 6.609549999999999592e+00 3.064729999999999954e+00 3.327230000000000132e+00 4.771790000000000198e+00 8.877300000000000191e-01 5.148450000000000415e+00 6.216420000000000279e+00 5.241760000000000197e+00 6.327429999999999666e+00 6.609539999999999971e+00 3.064729999999999954e+00 5.977780000000000094e+00 4.771779999999999688e+00 8.877300000000000191e-01 7.799000000000000377e+00 6.216429999999999900e+00 5.241740000000000066e+00 1.591190000000000104e+00 3.474050000000000082e+00 9.218239999999999768e+00 2.770199999999999996e+00 3.867199999999999971e+00 7.041240000000000165e+00 1.241549999999999931e+00 1.636300000000000088e+00 7.041249999999999787e+00 3.119839999999999947e+00 5.704939999999999678e+00 9.218260000000000787e+00 4.241740000000000066e+00 3.474060000000000148e+00 9.218249999999999389e+00 5.420749999999999957e+00 3.867199999999999971e+00 7.041240000000000165e+00 3.892110000000000181e+00 1.636300000000000088e+00 7.041249999999999787e+00 5.770400000000000418e+00 5.704950000000000188e+00 9.218270000000000408e+00 6.892290000000000028e+00 3.474060000000000148e+00 9.218239999999999768e+00 8.071289999999999409e+00 3.867199999999999971e+00 7.041240000000000165e+00 6.542659999999999698e+00 1.636300000000000088e+00 7.041260000000000296e+00 8.420939999999999870e+00 5.704939999999999678e+00 9.218260000000000787e+00 1.997919999999999918e+00 7.935830000000000162e+00 9.218239999999999768e+00 1.648300000000000098e+00 6.098080000000000389e+00 7.041249999999999787e+00 4.648469999999999658e+00 7.935839999999999783e+00 9.218239999999999768e+00 4.298840000000000217e+00 6.098069999999999879e+00 7.041260000000000296e+00 7.299039999999999750e+00 7.935830000000000162e+00 9.218249999999999389e+00 6.949390000000000178e+00 6.098090000000000011e+00 7.041260000000000296e+00 9.892530000000000712e+00 5.311810000000000365e+00 1.139526000000000039e+01 3.062780000000000058e+00 3.080940000000000012e+00 1.139527000000000001e+01 4.591420000000000279e+00 5.311819999999999986e+00 1.139525000000000077e+01 5.713339999999999641e+00 3.080940000000000012e+00 1.139527000000000001e+01 7.241979999999999862e+00 5.311810000000000365e+00 1.139525000000000077e+01 8.363879999999999981e+00 3.080919999999999881e+00 1.139527000000000001e+01 3.469520000000000159e+00 7.542699999999999960e+00 1.139527000000000001e+01 6.120059999999999611e+00 7.542709999999999582e+00 1.139527999999999963e+01 8.770609999999999573e+00 7.542699999999999960e+00 1.139527000000000001e+01 2.562809999999999810e+00 4.800340000000000273e+00 1.537177999999999933e+01 1.086414000000000080e+01 6.638099999999999667e+00 1.754877000000000109e+01 3.741789999999999949e+00 5.193480000000000096e+00 1.319476000000000049e+01 2.213169999999999860e+00 2.962600000000000122e+00 1.319477999999999973e+01 4.091459999999999653e+00 7.031240000000000379e+00 1.537177999999999933e+01 4.034379999999999633e+00 4.407230000000000203e+00 1.754879000000000033e+01 5.213350000000000151e+00 4.800329999999999764e+00 1.537177999999999933e+01 5.563019999999999854e+00 6.638099999999999667e+00 1.754878000000000071e+01 6.392350000000000421e+00 5.193489999999999718e+00 1.319476000000000049e+01 4.863719999999999821e+00 2.962600000000000122e+00 1.319477999999999973e+01 6.741999999999999993e+00 7.031220000000000248e+00 1.537177999999999933e+01 6.684940000000000104e+00 4.407219999999999693e+00 1.754879000000000033e+01 7.863909999999999734e+00 4.800340000000000273e+00 1.537176999999999971e+01 8.213580000000000325e+00 6.638099999999999667e+00 1.754879000000000033e+01 9.042889999999999873e+00 5.193469999999999587e+00 1.319476000000000049e+01 7.514260000000000161e+00 2.962600000000000122e+00 1.319477000000000011e+01 9.392559999999999576e+00 7.031229999999999869e+00 1.537179000000000073e+01 9.335490000000000066e+00 4.407230000000000203e+00 1.754879000000000033e+01 2.969529999999999781e+00 9.262109999999999843e+00 1.537176000000000009e+01 2.619889999999999830e+00 7.424360000000000070e+00 1.319477999999999973e+01 4.441119999999999735e+00 8.868999999999999773e+00 1.754879999999999995e+01 5.620099999999999874e+00 9.262109999999999843e+00 1.537177999999999933e+01 5.270459999999999923e+00 7.424360000000000070e+00 1.319477999999999973e+01 7.091669999999999696e+00 8.868999999999999773e+00 1.754879999999999995e+01 8.270640000000000214e+00 9.262119999999999465e+00 1.537176000000000009e+01 7.921009999999999884e+00 7.424360000000000070e+00 1.319477000000000011e+01 9.742240000000000677e+00 8.868990000000000151e+00 1.754879000000000033e+01 9.327650000000000219e+00 8.447309999999999874e+00 5.241740000000000066e+00 2.205319999999999947e+00 7.002679999999999794e+00 8.877199999999999536e-01 2.554980000000000029e+00 8.840439999999999188e+00 3.064750000000000085e+00 4.026539999999999786e+00 8.447300000000000253e+00 5.241729999999999556e+00 4.855879999999999974e+00 7.002690000000000303e+00 8.877300000000000191e-01 5.205530000000000435e+00 8.840439999999999188e+00 3.064729999999999954e+00 6.677100000000000257e+00 8.447300000000000253e+00 5.241729999999999556e+00 7.506429999999999936e+00 7.002679999999999794e+00 8.877300000000000191e-01 7.856069999999999887e+00 8.840450000000000585e+00 3.064750000000000085e+00 1.433060000000000000e+00 1.107132000000000005e+01 3.064729999999999954e+00 9.734379999999999811e+00 1.290906999999999982e+01 5.241740000000000066e+00 2.612049999999999983e+00 1.146446000000000076e+01 8.877300000000000191e-01 1.083420000000000050e+00 9.233560000000000656e+00 8.877399999999999736e-01 2.961699999999999999e+00 1.330222000000000016e+01 3.064729999999999954e+00 2.904640000000000111e+00 1.067819000000000074e+01 5.241740000000000066e+00 4.083619999999999806e+00 1.107132000000000005e+01 3.064719999999999889e+00 4.433290000000000397e+00 1.290907999999999944e+01 5.241740000000000066e+00 5.262620000000000076e+00 1.146444999999999936e+01 8.877199999999999536e-01 3.733969999999999789e+00 9.233570000000000277e+00 8.877199999999999536e-01 5.612269999999999648e+00 1.330222000000000016e+01 3.064740000000000020e+00 5.555189999999999628e+00 1.067819000000000074e+01 5.241740000000000066e+00 6.734149999999999636e+00 1.107131000000000043e+01 3.064719999999999889e+00 7.083829999999999849e+00 1.290907999999999944e+01 5.241740000000000066e+00 7.913160000000000416e+00 1.146444999999999936e+01 8.877300000000000191e-01 6.384520000000000195e+00 9.233560000000000656e+00 8.877199999999999536e-01 8.262819999999999609e+00 1.330221000000000053e+01 3.064740000000000020e+00 8.205740000000000478e+00 1.067820000000000036e+01 5.241749999999999687e+00 3.176930000000000032e+00 8.328960000000000363e+00 7.041249999999999787e+00 3.526590000000000114e+00 1.016672999999999938e+01 9.218260000000000787e+00 5.827490000000000059e+00 8.328969999999999985e+00 7.041240000000000165e+00 6.177139999999999631e+00 1.016671999999999976e+01 9.218260000000000787e+00 8.478040000000000020e+00 8.328960000000000363e+00 7.041249999999999787e+00 8.827700000000000102e+00 1.016671999999999976e+01 9.218260000000000787e+00 2.404669999999999863e+00 1.239760000000000062e+01 9.218239999999999768e+00 3.583680000000000199e+00 1.279073999999999955e+01 7.041249999999999787e+00 2.055039999999999978e+00 1.055986000000000047e+01 7.041249999999999787e+00 3.933330000000000215e+00 1.462850000000000072e+01 9.218260000000000787e+00 5.055209999999999759e+00 1.239758999999999922e+01 9.218249999999999389e+00 6.234230000000000160e+00 1.279074999999999918e+01 7.041240000000000165e+00 4.705569999999999808e+00 1.055983999999999945e+01 7.041249999999999787e+00 6.583870000000000111e+00 1.462848999999999933e+01 9.218260000000000787e+00 7.705770000000000231e+00 1.239760000000000062e+01 9.218249999999999389e+00 8.884779999999999234e+00 1.279072999999999993e+01 7.041240000000000165e+00 7.356139999999999901e+00 1.055985000000000085e+01 7.041260000000000296e+00 9.234429999999999694e+00 1.462850000000000072e+01 9.218249999999999389e+00 1.029926000000000030e+01 9.773590000000000444e+00 1.139526000000000039e+01 4.998160000000000380e+00 9.773600000000000065e+00 1.139527000000000001e+01 7.648719999999999963e+00 9.773600000000000065e+00 1.139525000000000077e+01 1.070598999999999990e+01 1.423535000000000039e+01 1.139526000000000039e+01 3.876250000000000195e+00 1.200447999999999915e+01 1.139527000000000001e+01 5.404889999999999972e+00 1.423536000000000001e+01 1.139526000000000039e+01 6.526810000000000223e+00 1.200447999999999915e+01 1.139527000000000001e+01 8.055440000000000822e+00 1.423535000000000039e+01 1.139526000000000039e+01 9.177350000000000563e+00 1.200449000000000055e+01 1.139527999999999963e+01 1.127088000000000001e+01 1.109988000000000063e+01 1.754878000000000071e+01 4.148539999999999672e+00 9.655260000000000176e+00 1.319477000000000011e+01 4.498199999999999754e+00 1.149300999999999995e+01 1.537179000000000073e+01 5.969759999999999955e+00 1.109985999999999962e+01 1.754878000000000071e+01 6.799080000000000013e+00 9.655250000000000554e+00 1.319477999999999973e+01 7.148749999999999716e+00 1.149300000000000033e+01 1.537177999999999933e+01 8.620329999999999160e+00 1.109988000000000063e+01 1.754878000000000071e+01 9.449650000000000105e+00 9.655250000000000554e+00 1.319477000000000011e+01 9.799300000000000566e+00 1.149300999999999995e+01 1.537179000000000073e+01 3.376279999999999948e+00 1.372389000000000081e+01 1.537176999999999971e+01 1.167759999999999998e+01 1.556164000000000058e+01 1.754878000000000071e+01 4.555270000000000152e+00 1.411702999999999975e+01 1.319476000000000049e+01 3.026629999999999932e+00 1.188613999999999926e+01 1.319478999999999935e+01 4.904930000000000234e+00 1.595477999999999952e+01 1.537179000000000073e+01 4.847859999999999836e+00 1.333076999999999934e+01 1.754879000000000033e+01 6.026830000000000354e+00 1.372387999999999941e+01 1.537176999999999971e+01 6.376500000000000057e+00 1.556164000000000058e+01 1.754879000000000033e+01 7.205820000000000114e+00 1.411702999999999975e+01 1.319477000000000011e+01 5.677190000000000403e+00 1.188612999999999964e+01 1.319477000000000011e+01 7.555480000000000196e+00 1.595477999999999952e+01 1.537177999999999933e+01 7.498420000000000307e+00 1.333076999999999934e+01 1.754879000000000033e+01 8.677379999999999427e+00 1.372387999999999941e+01 1.537176000000000009e+01 9.027049999999999130e+00 1.556164000000000058e+01 1.754877000000000109e+01 9.856370000000000076e+00 1.411703999999999937e+01 1.319477000000000011e+01 8.327749999999999986e+00 1.188613999999999926e+01 1.319477999999999973e+01 1.020603999999999978e+01 1.595478999999999914e+01 1.537179000000000073e+01 1.014896000000000065e+01 1.333076999999999934e+01 1.754879999999999995e+01