-2.079873032429999967e+03
-2.079934160840000004e+03
-2.079987154290000035e+03
-2.080036678129999927e+03
-2.080090795760000219e+03
-2.080160554919999868e+03
-2.080259588649999841e+03
-2.080403471189999891e+03
-2.080608893600000101e+03
-2.080893070739999985e+03
