-1.376735999999999960e+00 -7.980329999999999924e-01 1.341382999999999992e+00 1.375517000000000101e+00 7.993670000000000497e-01 -1.340705000000000036e+00 1.375707000000000013e+00 7.982359999999999456e-01 -1.341285000000000061e+00 -1.375613999999999892e+00 -7.963209999999999456e-01 1.340724000000000027e+00 1.375928000000000040e+00 7.969709999999999850e-01 -1.339652000000000065e+00 1.375520999999999994e+00 7.973379999999999912e-01 -1.340287000000000006e+00 -1.375008000000000008e+00 -7.971209999999999685e-01 1.341056000000000026e+00 1.376130999999999993e+00 7.980749999999999789e-01 -1.339844000000000035e+00 1.376433999999999935e+00 7.974580000000000002e-01 -1.340831000000000106e+00 -1.375661000000000023e+00 -7.976469999999999949e-01 1.340959000000000012e+00 -1.376368999999999954e+00 -7.972259999999999902e-01 1.341952999999999951e+00 1.375664999999999916e+00 7.985339999999999661e-01 -1.340189000000000075e+00 -1.375807999999999920e+00 -7.976119999999999877e-01 1.340829999999999966e+00 -1.375866000000000033e+00 -7.975740000000000052e-01 1.341485999999999956e+00 1.375852999999999993e+00 7.992719999999999825e-01 -1.341299999999999937e+00 -1.376216000000000106e+00 -7.980869999999999909e-01 1.342389000000000054e+00 -1.375834999999999919e+00 -7.972200000000000397e-01 1.341158999999999990e+00 1.376174999999999926e+00 7.985400000000000276e-01 -1.341517000000000071e+00 1.375796000000000019e+00 7.977119999999999767e-01 -1.340708999999999929e+00 1.375750999999999946e+00 7.982510000000000439e-01 -1.340367000000000086e+00 1.376185999999999909e+00 7.975849999999999884e-01 -1.340174999999999894e+00 1.374953000000000092e+00 7.981629999999999558e-01 -1.339514000000000093e+00 1.375739999999999963e+00 7.986220000000000541e-01 -1.340408999999999962e+00 1.376560000000000006e+00 7.990199999999999525e-01 -1.341439000000000048e+00 1.375785999999999953e+00 7.981030000000000069e-01 -1.341250999999999971e+00 1.375307999999999975e+00 7.983440000000000536e-01 -1.340452999999999895e+00 1.375952000000000064e+00 7.984069999999999778e-01 -1.341320000000000068e+00 -1.376452000000000009e+00 -7.974229999999999929e-01 1.341779000000000055e+00 -1.374973999999999918e+00 -7.981810000000000294e-01 1.341234999999999955e+00 -1.375955000000000039e+00 -7.981850000000000334e-01 1.341822999999999988e+00 -1.375930000000000097e+00 -7.976940000000000142e-01 1.341375999999999902e+00 -1.376335000000000086e+00 -7.968079999999999607e-01 1.340740000000000043e+00 -1.375609999999999999e+00 -7.978910000000000169e-01 1.341002000000000027e+00 -1.375834999999999919e+00 -7.975600000000000467e-01 1.341804999999999914e+00 -1.375928999999999958e+00 -7.978859999999999841e-01 1.341714000000000073e+00 -1.375648999999999900e+00 -7.972869999999999679e-01 1.341661999999999910e+00 -1.377531000000000061e+00 -7.968549999999999800e-01 1.341806000000000054e+00 1.375383999999999940e+00 7.981519999999999726e-01 -1.340392999999999946e+00 1.375680999999999932e+00 7.989100000000000090e-01 -1.341223000000000054e+00 -1.375586999999999893e+00 -7.979319999999999746e-01 1.341431999999999958e+00 1.375737999999999905e+00 7.971310000000000340e-01 -1.340132000000000101e+00 1.375542999999999960e+00 7.991070000000000118e-01 -1.341483999999999899e+00 -1.375647000000000064e+00 -7.975750000000000339e-01 1.341549000000000103e+00 1.375645999999999924e+00 7.979049999999999754e-01 -1.340451999999999977e+00 1.376298000000000021e+00 7.977640000000000287e-01 -1.342071000000000014e+00 -1.375089000000000006e+00 -7.982280000000000486e-01 1.340937999999999963e+00 -1.376012999999999931e+00 -7.979810000000000514e-01 1.341771000000000047e+00 1.375129999999999963e+00 7.990829999999999878e-01 -1.341588999999999920e+00 -1.375874000000000041e+00 -7.984409999999999563e-01 1.341701000000000032e+00 -1.376017999999999963e+00 -7.965489999999999515e-01 1.341957000000000066e+00 1.375648999999999900e+00 7.986119999999999886e-01 -1.340804000000000107e+00 -1.376319999999999988e+00 -7.981740000000000501e-01 1.341445999999999916e+00 -1.374775000000000080e+00 -7.964919999999999778e-01 1.341126000000000040e+00 1.376074000000000019e+00 7.979589999999999739e-01 -1.340608000000000022e+00 -1.375645999999999924e+00 -7.977049999999999974e-01 1.341479000000000088e+00 -1.375328000000000106e+00 -7.978049999999999864e-01 1.340411000000000019e+00 -1.375564000000000009e+00 -7.977199999999999847e-01 1.341512000000000038e+00 1.375494999999999912e+00 7.983240000000000336e-01 -1.340400000000000036e+00 1.376413000000000109e+00 7.978300000000000392e-01 -1.340718000000000076e+00 1.375631999999999966e+00 7.985200000000000076e-01 -1.341002999999999945e+00 -1.375288999999999984e+00 -7.974440000000000417e-01 1.340184999999999960e+00 -1.376362000000000085e+00 -7.969739999999999602e-01 1.341693999999999942e+00 1.375423999999999980e+00 7.978669999999999929e-01 -1.340157999999999960e+00 1.375726000000000004e+00 7.983270000000000088e-01 -1.340076000000000045e+00 -1.375057999999999891e+00 -7.980880000000000196e-01 1.340840999999999950e+00 -1.376235000000000097e+00 -7.974520000000000497e-01 1.340915999999999997e+00 1.376254000000000088e+00 7.974170000000000424e-01 -1.340707000000000093e+00 1.375718999999999914e+00 7.986290000000000333e-01 -1.341339000000000059e+00 -1.376422000000000034e+00 -7.984280000000000266e-01 1.340834000000000081e+00 -1.376068000000000069e+00 -7.977629999999999999e-01 1.340845000000000065e+00 1.376452999999999927e+00 7.985389999999999988e-01 -1.340521999999999991e+00 1.376017999999999963e+00 7.974210000000000464e-01 -1.340784999999999894e+00 1.375550999999999968e+00 7.978939999999999921e-01 -1.340036999999999923e+00 1.376897000000000038e+00 7.980589999999999629e-01 -1.341089999999999893e+00 1.375950000000000006e+00 7.975119999999999987e-01 -1.339793999999999929e+00 1.376266999999999907e+00 7.988819999999999810e-01 -1.340931000000000095e+00 1.376193999999999917e+00 7.985339999999999661e-01 -1.341197999999999890e+00 1.375987000000000071e+00 7.986189999999999678e-01 -1.340130000000000043e+00 1.375499000000000027e+00 7.972639999999999727e-01 -1.340405000000000069e+00 1.376268999999999965e+00 7.979870000000000019e-01 -1.340554999999999941e+00 1.375672999999999924e+00 7.981270000000000309e-01 -1.340000000000000080e+00 -1.375531000000000059e+00 -7.971789999999999710e-01 1.341218999999999939e+00 -1.375186999999999937e+00 -7.983740000000000281e-01 1.341814999999999980e+00 -1.375818999999999903e+00 -7.976910000000000389e-01 1.340329000000000104e+00 -1.374729000000000090e+00 -7.988530000000000353e-01 1.341828999999999938e+00 -1.376414999999999944e+00 -7.967370000000000285e-01 1.341971000000000025e+00 -1.376241999999999965e+00 -7.971380000000000132e-01 1.341178999999999899e+00 -1.375845999999999902e+00 -7.975400000000000267e-01 1.341488000000000014e+00 -1.375901000000000041e+00 -7.981749999999999678e-01 1.341981000000000090e+00 -1.375879999999999992e+00 -7.971709999999999630e-01 1.341126000000000040e+00 -1.375721999999999889e+00 -7.975259999999999572e-01 1.341893000000000002e+00 -1.374735999999999958e+00 -7.979469999999999619e-01 1.341471999999999998e+00 -1.375656999999999908e+00 -7.984869999999999468e-01 1.341153000000000040e+00 1.375756999999999897e+00 7.988509999999999778e-01 -1.341197999999999890e+00 1.376173000000000091e+00 7.970819999999999572e-01 -1.340492000000000017e+00 1.375777000000000028e+00 7.980620000000000491e-01 -1.340627999999999931e+00 -1.375674999999999981e+00 -7.975090000000000234e-01 1.341531999999999947e+00 -1.376297000000000104e+00 -7.978089999999999904e-01 1.341390000000000082e+00 1.375710999999999906e+00 7.985740000000000061e-01 -1.340932000000000013e+00 1.375839999999999952e+00 7.980080000000000506e-01 -1.341042000000000067e+00 -1.375345000000000040e+00 -7.982310000000000239e-01 1.341847000000000012e+00 -1.375841000000000092e+00 -7.971669999999999590e-01 1.341029999999999944e+00 1.375725000000000087e+00 7.977239999999999887e-01 -1.339928000000000008e+00 1.375861999999999918e+00 7.980800000000000116e-01 -1.340959999999999930e+00 -1.376851999999999965e+00 -7.974320000000000297e-01 1.342079000000000022e+00 -1.376236999999999933e+00 -7.974769999999999914e-01 1.341633999999999993e+00 1.375364000000000031e+00 7.987410000000000343e-01 -1.341506000000000087e+00 1.375483999999999929e+00 7.990230000000000388e-01 -1.340470999999999968e+00 3.680000000000000003e-04 -3.139999999999999888e-04 1.745999999999999939e-03 -1.863208999999999893e+00 -3.917060999999999904e+00 4.423928000000000083e+00 1.862498999999999905e+00 3.917009999999999881e+00 -4.423370000000000246e+00 1.862349000000000032e+00 3.917915999999999954e+00 -4.422501999999999711e+00 -5.029999999999999749e-04 4.730000000000000046e-04 1.797999999999999902e-03 -1.864378000000000091e+00 -3.917282999999999848e+00 4.424121999999999666e+00 7.230000000000000098e-04 3.400000000000000244e-04 2.004000000000000139e-03 -1.863593000000000055e+00 -3.917813999999999908e+00 4.423377999999999588e+00 1.862497999999999987e+00 3.916611000000000065e+00 -4.423790000000000333e+00 1.862511000000000028e+00 3.917511999999999883e+00 -4.422804000000000180e+00 -1.479999999999999925e-04 -6.260000000000000373e-04 2.703999999999999806e-03 -1.863477000000000050e+00 -3.917387999999999870e+00 4.423481999999999914e+00 8.200000000000000095e-05 -4.240000000000000062e-04 3.047999999999999928e-03 -1.863378999999999897e+00 -3.917041000000000217e+00 4.423936000000000313e+00 1.863868000000000080e+00 3.916831000000000174e+00 -4.424140000000000406e+00 1.863097000000000003e+00 3.917553999999999981e+00 -4.422477999999999909e+00 8.940000000000000464e-04 -1.530000000000000056e-04 5.180000000000000143e-04 -1.864138000000000073e+00 -3.918013999999999886e+00 4.423721999999999710e+00 1.033000000000000064e-03 -1.016999999999999892e-03 1.988000000000000184e-03 1.862592000000000025e+00 3.916028999999999982e+00 -4.422700999999999993e+00 -1.863715999999999928e+00 -3.916831000000000174e+00 4.422901999999999667e+00 8.429999999999999993e-04 -8.360000000000000460e-04 1.484999999999999992e-03 1.863126000000000060e+00 3.917124999999999968e+00 -4.423574000000000339e+00 -1.862910999999999984e+00 -3.916647000000000212e+00 4.422719999999999985e+00 1.479999999999999925e-04 -8.799999999999999771e-05 2.288000000000000103e-03 1.862438000000000038e+00 3.917060999999999904e+00 -4.423669000000000295e+00 -1.863223999999999991e+00 -3.917536000000000129e+00 4.423708000000000418e+00 7.169999999999999724e-04 2.369999999999999874e-04 -2.514999999999999875e-03 1.862859999999999960e+00 3.915589999999999904e+00 -4.423451000000000022e+00 1.863307000000000047e+00 3.916421999999999848e+00 -4.424030000000000129e+00 -2.259999999999999910e-04 1.949999999999999965e-04 -2.458000000000000115e-03 1.374999999999999920e-03 -5.259999999999999919e-04 -2.530000000000000131e-03 1.863058000000000103e+00 3.916660999999999948e+00 -4.423528000000000127e+00 1.863205999999999918e+00 3.917091000000000101e+00 -4.423972000000000016e+00 4.600000000000000139e-04 3.879999999999999985e-04 -3.017999999999999849e-03 8.869999999999999846e-04 -7.550000000000000287e-04 -1.623000000000000094e-03 1.863498000000000099e+00 3.914932999999999996e+00 -4.423332000000000264e+00 1.863655999999999979e+00 3.916636000000000006e+00 -4.424809999999999910e+00 2.570000000000000127e-04 1.029999999999999964e-04 -2.547999999999999918e-03 5.379999999999999583e-04 -4.290000000000000193e-04 -2.956999999999999993e-03 1.862729999999999997e+00 3.916878000000000082e+00 -4.423089000000000048e+00 9.680000000000000019e-04 -1.262000000000000101e-03 -2.072000000000000057e-03 1.863108999999999904e+00 3.917164000000000090e+00 -4.423572000000000060e+00 2.869999999999999830e-04 1.420000000000000092e-04 -3.092000000000000130e-03 1.863666000000000045e+00 3.916879000000000222e+00 -4.423301999999999623e+00 -1.863100999999999896e+00 -3.917593000000000103e+00 4.421473999999999904e+00 -1.863664999999999905e+00 -3.917177999999999827e+00 4.422365000000000101e+00 -1.863218000000000041e+00 -3.917482999999999826e+00 4.422481000000000328e+00 -1.862861000000000100e+00 -3.916713999999999807e+00 4.422209999999999752e+00 -1.863480000000000025e+00 -3.917317000000000160e+00 4.422185999999999950e+00 -1.863331999999999988e+00 -3.915938000000000141e+00 4.421444000000000152e+00 -1.863248000000000015e+00 -3.916774000000000200e+00 4.422308000000000128e+00 -1.863113999999999937e+00 -3.916795000000000027e+00 4.420702000000000353e+00 -1.862845000000000084e+00 -3.916532999999999820e+00 4.420822000000000251e+00 7.360000000000000006e-04 1.579999999999999916e-04 -6.920000000000000153e-04 -1.863086000000000020e+00 -3.916654999999999998e+00 4.425437999999999761e+00 1.863148999999999944e+00 3.916056999999999899e+00 -4.424127000000000365e+00 1.862616000000000049e+00 3.917410999999999976e+00 -4.424452999999999747e+00 -3.499999999999999693e-05 1.920000000000000049e-04 3.200000000000000262e-04 -1.863629999999999898e+00 -3.916865000000000041e+00 4.424510999999999861e+00 5.299999999999999807e-04 7.789999999999999616e-04 -2.121000000000000055e-03 -1.863310000000000022e+00 -3.916119999999999823e+00 4.424176000000000109e+00 1.862783999999999995e+00 3.915954000000000157e+00 -4.423949999999999605e+00 1.863040000000000029e+00 3.917804999999999982e+00 -4.425285999999999831e+00 4.490000000000000176e-04 2.100000000000000087e-04 -6.899999999999999667e-05 -1.863691999999999904e+00 -3.916004000000000040e+00 4.424241000000000312e+00 -1.200000000000000030e-05 2.200000000000000078e-04 -4.710000000000000102e-04 -1.863580000000000014e+00 -3.916135999999999839e+00 4.424044000000000310e+00 1.863486999999999894e+00 3.915979000000000099e+00 -4.424389999999999823e+00 1.863131000000000093e+00 3.917127999999999943e+00 -4.424090999999999774e+00 4.119999999999999856e-04 7.240000000000000342e-04 -8.289999999999999843e-04 -1.863337999999999939e+00 -3.916631000000000196e+00 4.424909999999999677e+00 8.989999999999999511e-04 -6.629999999999999609e-04 7.630000000000000063e-04 1.863229000000000024e+00 3.915805999999999898e+00 -4.424326999999999899e+00 -1.863806999999999992e+00 -3.917266999999999832e+00 4.424131000000000036e+00 4.319999999999999838e-04 6.610000000000000207e-04 -6.089999999999999494e-04 1.862519999999999953e+00 3.916939999999999866e+00 -4.424852999999999703e+00 -1.862522999999999929e+00 -3.917203000000000213e+00 4.424436000000000035e+00 -3.229999999999999907e-04 -9.349999999999999587e-04 8.630000000000000518e-04 1.862964000000000064e+00 3.916679999999999939e+00 -4.423941000000000123e+00 -1.863720999999999961e+00 -3.917517000000000138e+00 4.424700999999999773e+00 -1.863450999999999969e+00 -3.916666000000000203e+00 4.423634999999999984e+00 1.863089999999999913e+00 3.915986000000000189e+00 -4.422685999999999673e+00 -1.060000000000000016e-04 7.100000000000000462e-05 2.085000000000000048e-03 -1.863768000000000091e+00 -3.916033999999999793e+00 4.423328999999999844e+00 1.862157000000000062e+00 3.915456999999999965e+00 -4.422255999999999965e+00 -1.240000000000000054e-04 -6.669999999999999497e-04 2.030999999999999819e-03 -1.864012000000000002e+00 -3.916297999999999835e+00 4.424292999999999587e+00 1.862516000000000060e+00 3.915087000000000206e+00 -4.422716000000000314e+00 7.900000000000000121e-04 -4.049999999999999781e-04 2.150000000000000001e-03 1.259999999999999998e-04 1.979999999999999881e-04 2.570999999999999935e-03 -1.862926000000000082e+00 -3.916577999999999893e+00 4.424240000000000173e+00 1.862451999999999996e+00 3.916453000000000184e+00 -4.422263000000000055e+00 1.862583000000000100e+00 3.916482999999999937e+00 -4.421892999999999851e+00 6.340000000000000149e-04 -1.209000000000000005e-03 3.436999999999999951e-03 -1.863086999999999938e+00 -3.916903000000000024e+00 4.424560999999999744e+00 2.519999999999999996e-04 1.740000000000000010e-04 2.533999999999999794e-03 -1.863661000000000012e+00 -3.917640000000000011e+00 4.424271000000000065e+00 1.862057999999999991e+00 3.916638999999999982e+00 -4.422487000000000279e+00 1.863413999999999904e+00 3.915766000000000080e+00 -4.421384999999999899e+00 1.939999999999999993e-04 2.220000000000000022e-04 2.266999999999999918e-03 -1.863145000000000051e+00 -3.916732999999999798e+00 4.424693999999999683e+00 5.320000000000000293e-04 2.900000000000000017e-04 3.033000000000000106e-03 -1.863380000000000036e+00 -3.916798000000000002e+00 4.423646999999999885e+00 1.863097000000000003e+00 3.917225000000000179e+00 -4.422112000000000265e+00 1.862630999999999926e+00 3.916068999999999800e+00 -4.420969000000000371e+00 4.399999999999999886e-05 -4.490000000000000176e-04 2.086000000000000180e-03 -1.864019000000000092e+00 -3.917260999999999882e+00 4.424220000000000041e+00 1.862967000000000040e+00 3.917250999999999816e+00 -4.424802999999999820e+00 9.899999999999999404e-05 -6.710000000000000469e-04 -1.825999999999999932e-03 1.862686999999999982e+00 3.917044999999999888e+00 -4.424053999999999931e+00 4.270000000000000249e-04 8.829999999999999958e-04 -3.870000000000000176e-03 1.863010999999999973e+00 3.917415000000000092e+00 -4.424299999999999677e+00 4.000000000000000192e-04 -1.389999999999999905e-04 -2.272999999999999847e-03 4.389999999999999914e-04 4.719999999999999803e-04 -2.442000000000000160e-03 1.862856000000000067e+00 3.916152999999999995e+00 -4.423936000000000313e+00 1.863510999999999918e+00 3.917218000000000089e+00 -4.424463000000000257e+00 5.550000000000000462e-04 -5.259999999999999919e-04 -3.314000000000000105e-03 9.510000000000000224e-04 1.500000000000000038e-05 -3.419000000000000164e-03 1.862759000000000054e+00 3.915683000000000025e+00 -4.424018000000000228e+00 1.863798999999999984e+00 3.916784999999999961e+00 -4.424210999999999672e+00 -9.999999999999999547e-07 2.930000000000000204e-04 -3.324000000000000132e-03 2.429999999999999977e-04 6.040000000000000447e-04 -3.484000000000000118e-03 1.862749999999999906e+00 3.916390999999999956e+00 -4.424413000000000373e+00 1.862864000000000075e+00 3.917326000000000086e+00 -4.424614000000000047e+00 -1.800000000000000046e-05 -9.920000000000000432e-04 -1.719000000000000042e-03 -1.862446000000000046e+00 -3.916564999999999852e+00 4.421367000000000047e+00 -1.863556999999999908e+00 -3.917346000000000217e+00 4.421714999999999840e+00 -1.863601999999999981e+00 -3.917266999999999832e+00 4.422398000000000273e+00 -1.863037999999999972e+00 -3.916532999999999820e+00 4.421342000000000105e+00 -1.863305999999999907e+00 -3.917895000000000127e+00 4.421587999999999852e+00 -1.863150000000000084e+00 -3.915801000000000087e+00 4.420933999999999919e+00 -1.862676999999999916e+00 -3.917895000000000127e+00 4.420975000000000321e+00 -1.862961000000000089e+00 -3.916097000000000161e+00 4.421917999999999793e+00 -1.862964000000000064e+00 -3.917978999999999878e+00 4.421306999999999654e+00 -1.863396999999999970e+00 -3.917885000000000062e+00 4.424805000000000099e+00 1.862815000000000110e+00 3.915510999999999964e+00 -4.423816000000000415e+00 7.010000000000000172e-04 -5.509999999999999490e-04 -7.879999999999999635e-04 -1.862959000000000032e+00 -3.916959999999999997e+00 4.424510999999999861e+00 1.863331999999999988e+00 3.916278000000000148e+00 -4.424814999999999721e+00 2.190000000000000106e-04 -5.699999999999999772e-04 8.069999999999999916e-04 -1.863728999999999969e+00 -3.917917999999999790e+00 4.424396999999999913e+00 1.862803999999999904e+00 3.916462999999999806e+00 -4.424738999999999756e+00 5.490000000000000088e-04 -7.219999999999999855e-04 -5.910000000000000539e-04 4.859999999999999954e-04 -2.660000000000000146e-04 1.800000000000000046e-05 -1.863086000000000020e+00 -3.915849000000000135e+00 4.424328000000000038e+00 1.863154999999999895e+00 3.916656000000000137e+00 -4.423842999999999748e+00 1.863614000000000104e+00 3.916564000000000156e+00 -4.424123999999999945e+00 -3.449999999999999833e-04 -3.820000000000000153e-04 -1.038000000000000077e-03 -1.863223000000000074e+00 -3.918200999999999823e+00 4.423456999999999972e+00 2.970000000000000092e-04 1.242999999999999964e-03 -6.620000000000000450e-04 -1.863393000000000077e+00 -3.916506000000000043e+00 4.423161000000000342e+00 1.863316999999999890e+00 3.916224000000000149e+00 -4.424535999999999802e+00 1.863207999999999975e+00 3.916745999999999839e+00 -4.423912999999999762e+00 2.120000000000000031e-04 -4.400000000000000157e-04 2.090000000000000115e-04 -1.863210999999999951e+00 -3.918277999999999928e+00 4.423662000000000205e+00 8.450000000000000479e-04 3.069999999999999812e-04 -1.630000000000000047e-04 -1.863747999999999960e+00 -3.916231999999999935e+00 4.423523000000000316e+00 1.863034000000000079e+00 3.916453000000000184e+00 -4.424477000000000437e+00 1.862611000000000017e+00 3.916501999999999928e+00 -4.423982999999999777e+00 1.359999999999999989e-04 1.200000000000000030e-05 -9.409999999999999962e-04 -1.863266000000000089e+00 -3.917797999999999892e+00 4.422315000000000218e+00