9.094268409999999747e+00 0.000000000000000000e+00 0.000000000000000000e+00 0.000000000000000000e+00 1.575173563999999971e+01 0.000000000000000000e+00 0.000000000000000000e+00 0.000000000000000000e+00 2.327111266000000001e+01
9.094268409999999747e+00 0.000000000000000000e+00 0.000000000000000000e+00 0.000000000000000000e+00 1.575173563999999971e+01 0.000000000000000000e+00 0.000000000000000000e+00 0.000000000000000000e+00 2.327111266000000001e+01
9.094268409999999747e+00 0.000000000000000000e+00 0.000000000000000000e+00 0.000000000000000000e+00 1.575173563999999971e+01 0.000000000000000000e+00 0.000000000000000000e+00 0.000000000000000000e+00 2.327111266000000001e+01
9.094268409999999747e+00 0.000000000000000000e+00 0.000000000000000000e+00 0.000000000000000000e+00 1.575173563999999971e+01 0.000000000000000000e+00 0.000000000000000000e+00 0.000000000000000000e+00 2.327111266000000001e+01
9.094268409999999747e+00 0.000000000000000000e+00 0.000000000000000000e+00 0.000000000000000000e+00 1.575173563999999971e+01 0.000000000000000000e+00 0.000000000000000000e+00 0.000000000000000000e+00 2.327111266000000001e+01
