1.200000000000000030e-04 1.575103000000000009e+01 5.191910000000000025e+00 1.515830000000000011e+00 2.624589999999999979e+00 5.191910000000000025e+00 1.399999999999999877e-04 3.500989999999999824e+00 2.534749999999999837e+00 1.515849999999999920e+00 8.757000000000000339e-01 2.534749999999999837e+00 3.031540000000000123e+00 1.575103000000000009e+01 5.191910000000000025e+00 4.547250000000000014e+00 2.624589999999999979e+00 5.191910000000000025e+00 3.031559999999999810e+00 3.500989999999999824e+00 2.534749999999999837e+00 4.547270000000000145e+00 8.757000000000000339e-01 2.534749999999999837e+00 6.062969999999999970e+00 1.575103000000000009e+01 5.191910000000000025e+00 7.578680000000000305e+00 2.624589999999999979e+00 5.191910000000000025e+00 6.062979999999999592e+00 3.500989999999999824e+00 2.534749999999999837e+00 7.578700000000000436e+00 8.757000000000000339e-01 2.534749999999999837e+00 1.200000000000000030e-04 5.249880000000000102e+00 5.191910000000000025e+00 1.515830000000000011e+00 7.875169999999999781e+00 5.191910000000000025e+00 1.399999999999999877e-04 8.751569999999999183e+00 2.534749999999999837e+00 1.515849999999999920e+00 6.126280000000000392e+00 2.534749999999999837e+00 3.031540000000000123e+00 5.249880000000000102e+00 5.191910000000000025e+00 4.547250000000000014e+00 7.875169999999999781e+00 5.191910000000000025e+00 3.031559999999999810e+00 8.751569999999999183e+00 2.534749999999999837e+00 4.547270000000000145e+00 6.126280000000000392e+00 2.534749999999999837e+00 6.062969999999999970e+00 5.249880000000000102e+00 5.191910000000000025e+00 7.578680000000000305e+00 7.875169999999999781e+00 5.191910000000000025e+00 6.062979999999999592e+00 8.751569999999999183e+00 2.534749999999999837e+00 7.578700000000000436e+00 6.126280000000000392e+00 2.534749999999999837e+00 1.200000000000000030e-04 1.050045000000000073e+01 5.191910000000000025e+00 1.515830000000000011e+00 1.312574000000000041e+01 5.191910000000000025e+00 1.399999999999999877e-04 1.400215000000000032e+01 2.534749999999999837e+00 1.515849999999999920e+00 1.137686000000000064e+01 2.534749999999999837e+00 3.031540000000000123e+00 1.050045000000000073e+01 5.191910000000000025e+00 4.547250000000000014e+00 1.312574000000000041e+01 5.191910000000000025e+00 3.031559999999999810e+00 1.400215000000000032e+01 2.534749999999999837e+00 4.547270000000000145e+00 1.137686000000000064e+01 2.534749999999999837e+00 6.062969999999999970e+00 1.050045000000000073e+01 5.191910000000000025e+00 7.578680000000000305e+00 1.312574000000000041e+01 5.191910000000000025e+00 6.062979999999999592e+00 1.400215000000000032e+01 2.534749999999999837e+00 7.578700000000000436e+00 1.137686000000000064e+01 2.534749999999999837e+00 1.200000000000000030e-04 1.575103000000000009e+01 1.294894999999999996e+01 1.515830000000000011e+00 2.624589999999999979e+00 1.294894999999999996e+01 1.399999999999999877e-04 3.500989999999999824e+00 1.029179000000000066e+01 1.515849999999999920e+00 8.757000000000000339e-01 1.029179000000000066e+01 3.031540000000000123e+00 1.575103000000000009e+01 1.294894999999999996e+01 4.547250000000000014e+00 2.624589999999999979e+00 1.294894999999999996e+01 3.031559999999999810e+00 3.500989999999999824e+00 1.029179000000000066e+01 4.547270000000000145e+00 8.757000000000000339e-01 1.029179000000000066e+01 6.062969999999999970e+00 1.575103000000000009e+01 1.294894999999999996e+01 7.578680000000000305e+00 2.624589999999999979e+00 1.294894999999999996e+01 6.062979999999999592e+00 3.500989999999999824e+00 1.029179000000000066e+01 7.578700000000000436e+00 8.757000000000000339e-01 1.029179000000000066e+01 1.200000000000000030e-04 5.249880000000000102e+00 1.294894999999999996e+01 1.515830000000000011e+00 7.875169999999999781e+00 1.294894999999999996e+01 1.399999999999999877e-04 8.751569999999999183e+00 1.029179000000000066e+01 1.515849999999999920e+00 6.126280000000000392e+00 1.029179000000000066e+01 3.031540000000000123e+00 5.249880000000000102e+00 1.294894999999999996e+01 4.547250000000000014e+00 7.875169999999999781e+00 1.294894999999999996e+01 3.031559999999999810e+00 8.751569999999999183e+00 1.029179000000000066e+01 4.547270000000000145e+00 6.126280000000000392e+00 1.029179000000000066e+01 6.062969999999999970e+00 5.249880000000000102e+00 1.294894999999999996e+01 7.578680000000000305e+00 7.875169999999999781e+00 1.294894999999999996e+01 6.062979999999999592e+00 8.751569999999999183e+00 1.029179000000000066e+01 7.578700000000000436e+00 6.126280000000000392e+00 1.029179000000000066e+01 1.200000000000000030e-04 1.050045000000000073e+01 1.294894999999999996e+01 1.515830000000000011e+00 1.312574000000000041e+01 1.294894999999999996e+01 1.399999999999999877e-04 1.400215000000000032e+01 1.029179000000000066e+01 1.515849999999999920e+00 1.137686000000000064e+01 1.029179000000000066e+01 3.031540000000000123e+00 1.050045000000000073e+01 1.294894999999999996e+01 4.547250000000000014e+00 1.312574000000000041e+01 1.294894999999999996e+01 3.031559999999999810e+00 1.400215000000000032e+01 1.029179000000000066e+01 4.547270000000000145e+00 1.137686000000000064e+01 1.029179000000000066e+01 6.062969999999999970e+00 1.050045000000000073e+01 1.294894999999999996e+01 7.578680000000000305e+00 1.312574000000000041e+01 1.294894999999999996e+01 6.062979999999999592e+00 1.400215000000000032e+01 1.029179000000000066e+01 7.578700000000000436e+00 1.137686000000000064e+01 1.029179000000000066e+01 1.200000000000000030e-04 1.575103000000000009e+01 2.070598999999999990e+01 1.515830000000000011e+00 2.624589999999999979e+00 2.070598000000000027e+01 1.399999999999999877e-04 3.500989999999999824e+00 1.804882999999999882e+01 1.515849999999999920e+00 8.757000000000000339e-01 1.804882999999999882e+01 3.031540000000000123e+00 1.575103000000000009e+01 2.070598999999999990e+01 4.547250000000000014e+00 2.624589999999999979e+00 2.070598000000000027e+01 3.031559999999999810e+00 3.500989999999999824e+00 1.804882999999999882e+01 4.547270000000000145e+00 8.757000000000000339e-01 1.804882999999999882e+01 6.062969999999999970e+00 1.575103000000000009e+01 2.070598999999999990e+01 7.578680000000000305e+00 2.624589999999999979e+00 2.070598000000000027e+01 6.062979999999999592e+00 3.500989999999999824e+00 1.804882999999999882e+01 7.578700000000000436e+00 8.757000000000000339e-01 1.804882999999999882e+01 1.200000000000000030e-04 5.249880000000000102e+00 2.070598999999999990e+01 1.515830000000000011e+00 7.875169999999999781e+00 2.070598000000000027e+01 1.399999999999999877e-04 8.751569999999999183e+00 1.804882999999999882e+01 1.515849999999999920e+00 6.126280000000000392e+00 1.804882999999999882e+01 3.031540000000000123e+00 5.249880000000000102e+00 2.070598999999999990e+01 4.547250000000000014e+00 7.875169999999999781e+00 2.070598000000000027e+01 3.031559999999999810e+00 8.751569999999999183e+00 1.804882999999999882e+01 4.547270000000000145e+00 6.126280000000000392e+00 1.804882999999999882e+01 6.062969999999999970e+00 5.249880000000000102e+00 2.070598999999999990e+01 7.578680000000000305e+00 7.875169999999999781e+00 2.070598000000000027e+01 6.062979999999999592e+00 8.751569999999999183e+00 1.804882999999999882e+01 7.578700000000000436e+00 6.126280000000000392e+00 1.804882999999999882e+01 1.200000000000000030e-04 1.050045000000000073e+01 2.070598999999999990e+01 1.515830000000000011e+00 1.312574000000000041e+01 2.070598000000000027e+01 1.399999999999999877e-04 1.400215000000000032e+01 1.804882999999999882e+01 1.515849999999999920e+00 1.137686000000000064e+01 1.804882999999999882e+01 3.031540000000000123e+00 1.050045000000000073e+01 2.070598999999999990e+01 4.547250000000000014e+00 1.312574000000000041e+01 2.070598000000000027e+01 3.031559999999999810e+00 1.400215000000000032e+01 1.804882999999999882e+01 4.547270000000000145e+00 1.137686000000000064e+01 1.804882999999999882e+01 6.062969999999999970e+00 1.050045000000000073e+01 2.070598999999999990e+01 7.578680000000000305e+00 1.312574000000000041e+01 2.070598000000000027e+01 6.062979999999999592e+00 1.400215000000000032e+01 1.804882999999999882e+01 7.578700000000000436e+00 1.137686000000000064e+01 1.804882999999999882e+01 1.200000000000000030e-04 1.750129999999999963e+00 3.863350000000000062e+00 1.100000000000000039e-04 3.498979999999999979e+00 6.292379999999999640e+00 1.515849999999999920e+00 2.626619999999999955e+00 1.434350000000000014e+00 1.399999999999999877e-04 1.330000000000000019e-03 1.434339999999999948e+00 1.515830000000000011e+00 4.375440000000000218e+00 3.863329999999999931e+00 1.515819999999999945e+00 8.736899999999999666e-01 6.292379999999999640e+00 3.031550000000000189e+00 1.750129999999999963e+00 3.863350000000000062e+00 3.031530000000000058e+00 3.498979999999999979e+00 6.292379999999999640e+00 4.547270000000000145e+00 2.626619999999999955e+00 1.434350000000000014e+00 3.031559999999999810e+00 1.330000000000000019e-03 1.434339999999999948e+00 4.547250000000000014e+00 4.375440000000000218e+00 3.863329999999999931e+00 4.547240000000000393e+00 8.736899999999999666e-01 6.292379999999999640e+00 6.062969999999999970e+00 1.750129999999999963e+00 3.863350000000000062e+00 6.062949999999999839e+00 3.498979999999999979e+00 6.292379999999999640e+00 7.578700000000000436e+00 2.626619999999999955e+00 1.434350000000000014e+00 6.062990000000000101e+00 1.330000000000000019e-03 1.434339999999999948e+00 7.578669999999999796e+00 4.375440000000000218e+00 3.863329999999999931e+00 7.578660000000000174e+00 8.736899999999999666e-01 6.292379999999999640e+00 1.200000000000000030e-04 7.000709999999999766e+00 3.863350000000000062e+00 1.100000000000000039e-04 8.749560000000000670e+00 6.292379999999999640e+00 1.515849999999999920e+00 7.877200000000000202e+00 1.434350000000000014e+00 1.399999999999999877e-04 5.251909999999999634e+00 1.434339999999999948e+00 1.515830000000000011e+00 9.626020000000000465e+00 3.863329999999999931e+00 1.515819999999999945e+00 6.124270000000000103e+00 6.292379999999999640e+00 3.031550000000000189e+00 7.000709999999999766e+00 3.863350000000000062e+00 3.031530000000000058e+00 8.749560000000000670e+00 6.292379999999999640e+00 4.547270000000000145e+00 7.877200000000000202e+00 1.434350000000000014e+00 3.031559999999999810e+00 5.251909999999999634e+00 1.434339999999999948e+00 4.547250000000000014e+00 9.626020000000000465e+00 3.863329999999999931e+00 4.547240000000000393e+00 6.124270000000000103e+00 6.292379999999999640e+00 6.062969999999999970e+00 7.000709999999999766e+00 3.863350000000000062e+00 6.062949999999999839e+00 8.749560000000000670e+00 6.292379999999999640e+00 7.578700000000000436e+00 7.877200000000000202e+00 1.434350000000000014e+00 6.062990000000000101e+00 5.251909999999999634e+00 1.434339999999999948e+00 7.578669999999999796e+00 9.626020000000000465e+00 3.863329999999999931e+00 7.578660000000000174e+00 6.124270000000000103e+00 6.292379999999999640e+00 1.200000000000000030e-04 1.225128999999999913e+01 3.863350000000000062e+00 1.100000000000000039e-04 1.400014000000000003e+01 6.292379999999999640e+00 1.515849999999999920e+00 1.312777999999999956e+01 1.434350000000000014e+00 1.399999999999999877e-04 1.050248999999999988e+01 1.434339999999999948e+00 1.515830000000000011e+00 1.487659999999999982e+01 3.863329999999999931e+00 1.515819999999999945e+00 1.137485000000000035e+01 6.292379999999999640e+00 3.031550000000000189e+00 1.225128999999999913e+01 3.863350000000000062e+00 3.031530000000000058e+00 1.400014000000000003e+01 6.292379999999999640e+00 4.547270000000000145e+00 1.312777999999999956e+01 1.434350000000000014e+00 3.031559999999999810e+00 1.050248999999999988e+01 1.434339999999999948e+00 4.547250000000000014e+00 1.487659999999999982e+01 3.863329999999999931e+00 4.547240000000000393e+00 1.137485000000000035e+01 6.292379999999999640e+00 6.062969999999999970e+00 1.225128999999999913e+01 3.863350000000000062e+00 6.062949999999999839e+00 1.400014000000000003e+01 6.292379999999999640e+00 7.578700000000000436e+00 1.312777999999999956e+01 1.434350000000000014e+00 6.062990000000000101e+00 1.050248999999999988e+01 1.434339999999999948e+00 7.578669999999999796e+00 1.487659999999999982e+01 3.863329999999999931e+00 7.578660000000000174e+00 1.137485000000000035e+01 6.292379999999999640e+00 1.200000000000000030e-04 1.750129999999999963e+00 1.162038000000000082e+01 1.100000000000000039e-04 3.498979999999999979e+00 1.404941999999999958e+01 1.515849999999999920e+00 2.626619999999999955e+00 9.191390000000000171e+00 1.399999999999999877e-04 1.330000000000000019e-03 9.191380000000000550e+00 1.515830000000000011e+00 4.375440000000000218e+00 1.162035999999999980e+01 1.515819999999999945e+00 8.736899999999999666e-01 1.404940999999999995e+01 3.031550000000000189e+00 1.750129999999999963e+00 1.162038000000000082e+01 3.031530000000000058e+00 3.498979999999999979e+00 1.404941999999999958e+01 4.547270000000000145e+00 2.626619999999999955e+00 9.191390000000000171e+00 3.031559999999999810e+00 1.330000000000000019e-03 9.191380000000000550e+00 4.547250000000000014e+00 4.375440000000000218e+00 1.162035999999999980e+01 4.547240000000000393e+00 8.736899999999999666e-01 1.404940999999999995e+01 6.062969999999999970e+00 1.750129999999999963e+00 1.162038000000000082e+01 6.062949999999999839e+00 3.498979999999999979e+00 1.404941999999999958e+01 7.578700000000000436e+00 2.626619999999999955e+00 9.191390000000000171e+00 6.062990000000000101e+00 1.330000000000000019e-03 9.191380000000000550e+00 7.578669999999999796e+00 4.375440000000000218e+00 1.162035999999999980e+01 7.578660000000000174e+00 8.736899999999999666e-01 1.404940999999999995e+01 1.200000000000000030e-04 7.000709999999999766e+00 1.162038000000000082e+01 1.100000000000000039e-04 8.749560000000000670e+00 1.404941999999999958e+01 1.515849999999999920e+00 7.877200000000000202e+00 9.191390000000000171e+00 1.399999999999999877e-04 5.251909999999999634e+00 9.191380000000000550e+00 1.515830000000000011e+00 9.626020000000000465e+00 1.162035999999999980e+01 1.515819999999999945e+00 6.124270000000000103e+00 1.404940999999999995e+01 3.031550000000000189e+00 7.000709999999999766e+00 1.162038000000000082e+01 3.031530000000000058e+00 8.749560000000000670e+00 1.404941999999999958e+01 4.547270000000000145e+00 7.877200000000000202e+00 9.191390000000000171e+00 3.031559999999999810e+00 5.251909999999999634e+00 9.191380000000000550e+00 4.547250000000000014e+00 9.626020000000000465e+00 1.162035999999999980e+01 4.547240000000000393e+00 6.124270000000000103e+00 1.404940999999999995e+01 6.062969999999999970e+00 7.000709999999999766e+00 1.162038000000000082e+01 6.062949999999999839e+00 8.749560000000000670e+00 1.404941999999999958e+01 7.578700000000000436e+00 7.877200000000000202e+00 9.191390000000000171e+00 6.062990000000000101e+00 5.251909999999999634e+00 9.191380000000000550e+00 7.578669999999999796e+00 9.626020000000000465e+00 1.162035999999999980e+01 7.578660000000000174e+00 6.124270000000000103e+00 1.404940999999999995e+01 1.200000000000000030e-04 1.225128999999999913e+01 1.162038000000000082e+01 1.100000000000000039e-04 1.400014000000000003e+01 1.404941999999999958e+01 1.515849999999999920e+00 1.312777999999999956e+01 9.191390000000000171e+00 1.399999999999999877e-04 1.050248999999999988e+01 9.191380000000000550e+00 1.515830000000000011e+00 1.487659999999999982e+01 1.162035999999999980e+01 1.515819999999999945e+00 1.137485000000000035e+01 1.404940999999999995e+01 3.031550000000000189e+00 1.225128999999999913e+01 1.162038000000000082e+01 3.031530000000000058e+00 1.400014000000000003e+01 1.404941999999999958e+01 4.547270000000000145e+00 1.312777999999999956e+01 9.191390000000000171e+00 3.031559999999999810e+00 1.050248999999999988e+01 9.191380000000000550e+00 4.547250000000000014e+00 1.487659999999999982e+01 1.162035999999999980e+01 4.547240000000000393e+00 1.137485000000000035e+01 1.404940999999999995e+01 6.062969999999999970e+00 1.225128999999999913e+01 1.162038000000000082e+01 6.062949999999999839e+00 1.400014000000000003e+01 1.404941999999999958e+01 7.578700000000000436e+00 1.312777999999999956e+01 9.191390000000000171e+00 6.062990000000000101e+00 1.050248999999999988e+01 9.191380000000000550e+00 7.578669999999999796e+00 1.487659999999999982e+01 1.162035999999999980e+01 7.578660000000000174e+00 1.137485000000000035e+01 1.404940999999999995e+01 1.200000000000000030e-04 1.750129999999999963e+00 1.937742000000000075e+01 1.100000000000000039e-04 3.498979999999999979e+00 2.180645000000000167e+01 1.515849999999999920e+00 2.626619999999999955e+00 1.694841999999999871e+01 1.399999999999999877e-04 1.330000000000000019e-03 1.694841999999999871e+01 1.515830000000000011e+00 4.375440000000000218e+00 1.937740000000000151e+01 1.515819999999999945e+00 8.736899999999999666e-01 2.180645000000000167e+01 3.031550000000000189e+00 1.750129999999999963e+00 1.937742000000000075e+01 3.031530000000000058e+00 3.498979999999999979e+00 2.180645000000000167e+01 4.547270000000000145e+00 2.626619999999999955e+00 1.694841999999999871e+01 3.031559999999999810e+00 1.330000000000000019e-03 1.694841999999999871e+01 4.547250000000000014e+00 4.375440000000000218e+00 1.937740000000000151e+01 4.547240000000000393e+00 8.736899999999999666e-01 2.180645000000000167e+01 6.062969999999999970e+00 1.750129999999999963e+00 1.937742000000000075e+01 6.062949999999999839e+00 3.498979999999999979e+00 2.180645000000000167e+01 7.578700000000000436e+00 2.626619999999999955e+00 1.694841999999999871e+01 6.062990000000000101e+00 1.330000000000000019e-03 1.694841999999999871e+01 7.578669999999999796e+00 4.375440000000000218e+00 1.937740000000000151e+01 7.578660000000000174e+00 8.736899999999999666e-01 2.180645000000000167e+01 1.200000000000000030e-04 7.000709999999999766e+00 1.937742000000000075e+01 1.100000000000000039e-04 8.749560000000000670e+00 2.180645000000000167e+01 1.515849999999999920e+00 7.877200000000000202e+00 1.694841999999999871e+01 1.399999999999999877e-04 5.251909999999999634e+00 1.694841999999999871e+01 1.515830000000000011e+00 9.626020000000000465e+00 1.937740000000000151e+01 1.515819999999999945e+00 6.124270000000000103e+00 2.180645000000000167e+01 3.031550000000000189e+00 7.000709999999999766e+00 1.937742000000000075e+01 3.031530000000000058e+00 8.749560000000000670e+00 2.180645000000000167e+01 4.547270000000000145e+00 7.877200000000000202e+00 1.694841999999999871e+01 3.031559999999999810e+00 5.251909999999999634e+00 1.694841999999999871e+01 4.547250000000000014e+00 9.626020000000000465e+00 1.937740000000000151e+01 4.547240000000000393e+00 6.124270000000000103e+00 2.180645000000000167e+01 6.062969999999999970e+00 7.000709999999999766e+00 1.937742000000000075e+01 6.062949999999999839e+00 8.749560000000000670e+00 2.180645000000000167e+01 7.578700000000000436e+00 7.877200000000000202e+00 1.694841999999999871e+01 6.062990000000000101e+00 5.251909999999999634e+00 1.694841999999999871e+01 7.578669999999999796e+00 9.626020000000000465e+00 1.937740000000000151e+01 7.578660000000000174e+00 6.124270000000000103e+00 2.180645000000000167e+01 1.200000000000000030e-04 1.225128999999999913e+01 1.937742000000000075e+01 1.100000000000000039e-04 1.400014000000000003e+01 2.180645000000000167e+01 1.515849999999999920e+00 1.312777999999999956e+01 1.694841999999999871e+01 1.399999999999999877e-04 1.050248999999999988e+01 1.694841999999999871e+01 1.515830000000000011e+00 1.487659999999999982e+01 1.937740000000000151e+01 1.515819999999999945e+00 1.137485000000000035e+01 2.180645000000000167e+01 3.031550000000000189e+00 1.225128999999999913e+01 1.937742000000000075e+01 3.031530000000000058e+00 1.400014000000000003e+01 2.180645000000000167e+01 4.547270000000000145e+00 1.312777999999999956e+01 1.694841999999999871e+01 3.031559999999999810e+00 1.050248999999999988e+01 1.694841999999999871e+01 4.547250000000000014e+00 1.487659999999999982e+01 1.937740000000000151e+01 4.547240000000000393e+00 1.137485000000000035e+01 2.180645000000000167e+01 6.062969999999999970e+00 1.225128999999999913e+01 1.937742000000000075e+01 6.062949999999999839e+00 1.400014000000000003e+01 2.180645000000000167e+01 7.578700000000000436e+00 1.312777999999999956e+01 1.694841999999999871e+01 6.062990000000000101e+00 1.050248999999999988e+01 1.694841999999999871e+01 7.578669999999999796e+00 1.487659999999999982e+01 1.937740000000000151e+01 7.578660000000000174e+00 1.137485000000000035e+01 2.180645000000000167e+01