-2.816266195870000047e+03
-2.816229710959999920e+03
-2.816120292810000137e+03
-2.815938841900000170e+03
-2.815686693820000073e+03
