-2.750000000000000166e-04 1.855000000000000095e-03 -3.448999999999999809e-03 1.500000000000000038e-05 2.170000000000000054e-03 -2.821000000000000157e-03 -1.779999999999999898e-04 -1.740000000000000010e-03 4.712000000000000043e-03 2.079999999999999872e-04 -1.526000000000000013e-03 4.275000000000000154e-03 -2.500000000000000052e-04 1.775000000000000102e-03 -3.650000000000000033e-03 -8.700000000000000051e-05 2.188999999999999974e-03 -3.376000000000000095e-03 4.199999999999999768e-05 -2.299999999999999961e-03 4.096999999999999947e-03 3.800000000000000209e-05 -1.740000000000000010e-03 4.282000000000000216e-03 1.119999999999999983e-04 1.907999999999999974e-03 -3.699000000000000031e-03 -2.739999999999999923e-04 2.111000000000000029e-03 -2.844999999999999873e-03 -1.600000000000000131e-04 -2.217999999999999920e-03 4.062999999999999771e-03 -3.780000000000000265e-04 -1.482000000000000027e-03 4.323999999999999719e-03 -1.669999999999999935e-04 1.629999999999999939e-03 -3.250999999999999984e-03 1.099999999999999971e-05 1.943000000000000066e-03 -3.627000000000000016e-03 -8.100000000000000375e-05 -1.786999999999999960e-03 4.389999999999999805e-03 3.159999999999999832e-04 -1.613999999999999983e-03 3.933999999999999997e-03 -3.420000000000000188e-04 1.232000000000000022e-03 -2.758000000000000035e-03 -1.299999999999999886e-04 1.946999999999999946e-03 -3.315999999999999937e-03 -3.950000000000000061e-04 -1.518999999999999951e-03 4.348999999999999568e-03 1.900000000000000105e-05 -1.613000000000000067e-03 4.611999999999999780e-03 1.279999999999999942e-04 1.229000000000000058e-03 -2.713999999999999833e-03 -2.739999999999999923e-04 1.835000000000000043e-03 -3.540999999999999877e-03 2.919999999999999961e-04 -1.502000000000000080e-03 4.322000000000000321e-03 -5.410000000000000312e-04 -1.657999999999999969e-03 3.942000000000000191e-03 -1.060000000000000016e-04 2.164000000000000125e-03 -3.543000000000000142e-03 1.599999999999999928e-05 1.289999999999999914e-03 -2.684999999999999887e-03 -1.740000000000000010e-04 -1.637999999999999916e-03 4.461999999999999821e-03 -2.069999999999999900e-04 -1.946000000000000030e-03 4.021000000000000268e-03 -3.229999999999999907e-04 2.141999999999999807e-03 -2.946999999999999967e-03 -1.550000000000000000e-04 1.694999999999999892e-03 -3.187000000000000163e-03 -5.119999999999999768e-04 -1.724999999999999971e-03 3.791999999999999798e-03 -1.019999999999999992e-04 -1.402000000000000034e-03 4.623000000000000373e-03 8.700000000000000051e-05 2.089999999999999844e-03 -2.883999999999999845e-03 -2.290000000000000098e-04 1.335000000000000032e-03 -2.714999999999999965e-03 4.060000000000000024e-04 -1.574000000000000095e-03 3.766999999999999949e-03 6.000000000000000152e-05 -1.928999999999999942e-03 4.019000000000000003e-03 -1.010000000000000020e-04 1.763999999999999943e-03 -3.805999999999999921e-03 3.480000000000000020e-04 2.808999999999999865e-03 -4.100999999999999611e-03 -1.190000000000000058e-04 -1.070999999999999903e-03 4.146000000000000379e-03 3.390000000000000001e-04 -1.768999999999999956e-03 5.216000000000000150e-03 2.660000000000000146e-04 1.892000000000000019e-03 -3.582999999999999814e-03 -9.899999999999999404e-05 1.732999999999999948e-03 -3.696000000000000067e-03 -1.350000000000000017e-04 -1.546000000000000065e-03 4.684999999999999928e-03 -1.119999999999999983e-04 -1.652000000000000040e-03 4.218999999999999660e-03 -4.519999999999999821e-04 1.869000000000000002e-03 -3.648000000000000201e-03 -5.730000000000000501e-04 2.752999999999999805e-03 -4.112000000000000204e-03 -1.200000000000000030e-05 -1.592000000000000099e-03 4.695000000000000388e-03 -4.889999999999999599e-04 -1.783999999999999996e-03 5.231000000000000406e-03 -7.299999999999999903e-05 2.439000000000000196e-03 -3.589999999999999875e-03 -4.719999999999999803e-04 1.837000000000000091e-03 -3.320000000000000034e-03 -9.100000000000000287e-05 -1.828999999999999897e-03 4.272999999999999889e-03 2.979999999999999793e-04 -1.788000000000000093e-03 5.161999999999999922e-03 -7.159999999999999481e-04 1.382999999999999898e-03 -4.124000000000000062e-03 -4.899999999999999842e-05 1.714999999999999945e-03 -3.461999999999999800e-03 -4.920000000000000328e-04 -1.918999999999999916e-03 5.232999999999999804e-03 -1.630000000000000047e-04 -1.714999999999999945e-03 5.048000000000000403e-03 5.190000000000000386e-04 1.386000000000000079e-03 -4.133999999999999654e-03 2.590000000000000071e-04 1.851999999999999914e-03 -3.207000000000000215e-03 2.880000000000000073e-04 -1.895999999999999899e-03 5.181999999999999974e-03 -4.000000000000000192e-04 -1.773999999999999969e-03 5.128999999999999879e-03 -6.299999999999999990e-05 1.418999999999999906e-03 -3.595000000000000105e-03 5.270000000000000162e-04 1.201000000000000028e-03 -4.041000000000000321e-03 -9.299999999999999727e-05 -1.840999999999999972e-03 5.066000000000000190e-03 7.899999999999999579e-05 -1.716999999999999993e-03 4.678999999999999999e-03 -6.080000000000000335e-04 2.439000000000000196e-03 -4.011999999999999941e-03 -8.799999999999999771e-05 2.292999999999999899e-03 -3.501999999999999905e-03 -4.350000000000000026e-04 -1.910000000000000022e-03 5.114999999999999755e-03 -1.169999999999999979e-04 -1.273000000000000043e-03 4.022000000000000401e-03 3.269999999999999795e-04 2.403000000000000188e-03 -4.000000000000000083e-03 -6.800000000000000488e-04 1.204999999999999908e-03 -4.050999999999999913e-03 2.100000000000000087e-04 -1.918999999999999916e-03 5.139000000000000339e-03 -1.600000000000000131e-04 -1.737999999999999962e-03 4.636000000000000364e-03 -2.300000000000000002e-05 1.479000000000000063e-03 -4.019000000000000003e-03 -1.599999999999999928e-05 2.498999999999999919e-03 -3.821000000000000178e-03 -7.100000000000000462e-05 -1.497999999999999983e-03 4.026000000000000065e-03 2.590000000000000071e-04 -2.690000000000000117e-03 4.211999999999999598e-03 -8.300000000000000086e-04 1.477000000000000014e-03 -4.122999999999999929e-03 -2.410000000000000033e-04 2.873000000000000120e-03 -4.756999999999999944e-03 -7.339999999999999520e-04 -9.200000000000000278e-04 4.423999999999999981e-03 -1.029999999999999964e-04 -1.946000000000000030e-03 4.315000000000000259e-03 5.770000000000000389e-04 1.479999999999999979e-03 -4.167999999999999830e-03 -1.200000000000000030e-04 2.573000000000000200e-03 -3.915000000000000077e-03 5.010000000000000347e-04 -8.850000000000000444e-04 4.361000000000000293e-03 -4.580000000000000195e-04 -2.691999999999999948e-03 4.197000000000000210e-03 -1.200000000000000030e-04 1.056999999999999997e-03 -5.069999999999999854e-03 6.849999999999999535e-04 1.626999999999999974e-03 -4.400000000000000265e-03 -1.019999999999999992e-04 -1.941000000000000017e-03 4.294000000000000074e-03 1.123999999999999999e-03 -1.152999999999999945e-03 4.291999999999999808e-03 -1.359999999999999989e-04 1.314999999999999980e-03 -4.251999999999999703e-03 -1.540000000000000028e-04 1.546000000000000065e-03 -4.312999999999999994e-03 -5.140000000000000254e-04 -2.762000000000000132e-03 4.204000000000000271e-03 -8.600000000000000331e-05 -2.066999999999999827e-03 4.505999999999999589e-03 -8.899999999999999491e-05 1.317000000000000028e-03 -4.334000000000000179e-03 -7.579999999999999932e-04 1.598999999999999944e-03 -4.432000000000000176e-03 2.700000000000000035e-04 -2.771000000000000026e-03 4.246999999999999907e-03 -1.296999999999999976e-03 -1.170000000000000033e-03 4.281000000000000083e-03 -1.320000000000000101e-04 2.733000000000000186e-03 -5.002000000000000370e-03 -2.400000000000000061e-05 1.294000000000000011e-03 -3.896999999999999856e-03 -5.300000000000000078e-05 -2.272000000000000148e-03 4.486000000000000404e-03 4.809999999999999823e-04 -1.105000000000000079e-03 4.318999999999999923e-03 -1.579999999999999916e-04 2.396000000000000126e-03 -4.011999999999999941e-03 -2.039999999999999984e-04 9.859999999999998974e-04 -4.725000000000000033e-03 -1.291000000000000047e-03 -1.376000000000000053e-03 4.231000000000000386e-03 -5.899999999999999754e-05 -1.623000000000000094e-03 3.950999999999999651e-03 -9.100000000000000287e-05 2.407999999999999984e-03 -4.048999999999999648e-03 -9.399999999999999448e-05 1.278999999999999972e-03 -3.948000000000000120e-03 1.013000000000000012e-03 -1.369999999999999907e-03 4.312999999999999994e-03 -6.880000000000000265e-04 -1.137999999999999906e-03 4.410999999999999990e-03 6.999999999999999895e-06 6.880000000000000265e-04 1.279999999999999942e-04 1.179999999999999951e-04 2.380000000000000117e-04 6.341000000000000282e-03 -1.900000000000000105e-05 1.939999999999999993e-04 -6.784000000000000100e-03 5.000000000000000240e-05 -5.810000000000000277e-04 -6.785000000000000232e-03 -1.039999999999999936e-04 3.150000000000000131e-04 -1.540000000000000028e-04 2.229999999999999994e-04 8.720000000000000537e-04 6.908000000000000078e-03 2.000000000000000164e-05 -3.499999999999999693e-05 6.970000000000000284e-04 2.950000000000000148e-04 -1.579999999999999916e-04 6.313000000000000035e-03 -5.099999999999999960e-05 4.319999999999999838e-04 -6.716999999999999880e-03 -4.510000000000000120e-04 -3.319999999999999926e-04 -6.677999999999999908e-03 1.749999999999999982e-04 1.269999999999999970e-04 3.559999999999999797e-04 1.450000000000000009e-04 6.650000000000000095e-04 6.901000000000000016e-03 1.669999999999999935e-04 1.599999999999999928e-05 7.169999999999999724e-04 4.800000000000000122e-05 -7.100000000000000462e-05 6.276000000000000328e-03 -2.199999999999999943e-05 1.740000000000000010e-04 -6.694000000000000297e-03 2.640000000000000202e-04 -4.240000000000000062e-04 -6.525999999999999683e-03 3.510000000000000208e-04 3.069999999999999812e-04 -1.050000000000000044e-04 7.200000000000000182e-05 8.189999999999999581e-04 6.799000000000000356e-03 2.199999999999999943e-05 8.360000000000000460e-04 -2.069999999999999900e-04 1.730000000000000038e-04 1.669999999999999935e-04 5.780999999999999681e-03 2.719999999999999979e-04 -7.320000000000000118e-04 -7.281000000000000145e-03 -1.399999999999999979e-05 -4.130000000000000099e-04 -7.024999999999999994e-03 1.679999999999999907e-04 -7.450000000000000025e-04 5.339999999999999695e-04 -1.200000000000000030e-04 -4.600000000000000004e-05 6.099000000000000254e-03 -3.040000000000000167e-04 -1.039999999999999936e-04 -4.199999999999999768e-05 8.899999999999999491e-05 4.009999999999999893e-04 5.780000000000000415e-03 -8.899999999999999491e-05 -8.570000000000000144e-04 -7.328000000000000312e-03 -2.790000000000000054e-04 -1.179999999999999951e-04 -7.369999999999999815e-03 1.399999999999999877e-04 -3.800000000000000209e-05 -7.999999999999999638e-06 1.740000000000000010e-04 3.190000000000000019e-04 6.089999999999999927e-03 4.580000000000000195e-04 -1.039999999999999936e-04 -3.000000000000000076e-05 2.100000000000000087e-04 3.840000000000000097e-04 5.825999999999999582e-03 -2.429999999999999977e-04 -7.470000000000000511e-04 -7.105000000000000204e-03 7.600000000000000418e-05 -1.669999999999999935e-04 -7.150000000000000105e-03 1.269999999999999970e-04 -7.299999999999999632e-04 5.760000000000000146e-04 2.889999999999999774e-04 7.999999999999999638e-06 6.043999999999999893e-03 7.100000000000000462e-05 1.350000000000000017e-04 2.790000000000000054e-04 1.840000000000000001e-04 5.240000000000000517e-04 6.178999999999999597e-03 2.400000000000000061e-05 -1.332000000000000068e-03 -6.648000000000000263e-03 -2.900000000000000017e-05 -8.409999999999999507e-04 -6.996999999999999748e-03 5.050000000000000235e-04 -6.480000000000000300e-04 8.769999999999999584e-04 1.340000000000000045e-04 8.399999999999999535e-05 6.002000000000000390e-03 2.139999999999999975e-04 3.680000000000000003e-04 -1.679999999999999907e-04 3.809999999999999910e-04 1.759999999999999954e-04 6.481999999999999915e-03 -6.200000000000000270e-05 -1.477999999999999930e-03 -6.340000000000000149e-03 -9.799999999999999684e-05 -9.380000000000000317e-04 -7.017999999999999933e-03 1.679999999999999907e-04 4.270000000000000249e-04 7.889999999999999878e-04 2.699999999999999899e-05 4.769999999999999934e-04 6.289999999999999584e-03 -1.090000000000000067e-04 4.060000000000000024e-04 -1.669999999999999935e-04 -1.740000000000000010e-04 1.840000000000000001e-04 6.415999999999999828e-03 -1.999999999999999909e-06 -1.291000000000000047e-03 -6.412000000000000165e-03 -3.899999999999999929e-05 -9.970000000000000563e-04 -6.942000000000000254e-03 -2.190000000000000106e-04 -5.699999999999999772e-04 9.460000000000000093e-04 2.049999999999999956e-04 9.500000000000000523e-05 6.062999999999999813e-03 5.500000000000000196e-05 -3.570000000000000040e-04 7.799999999999999859e-04 1.869999999999999917e-04 -1.121999999999999950e-03 5.911999999999999721e-03 5.270000000000000162e-04 -5.550000000000000462e-04 -6.360000000000000202e-03 -2.900000000000000017e-05 -6.740000000000000114e-04 -6.172000000000000403e-03 2.750000000000000166e-04 -1.610000000000000103e-04 1.088999999999999907e-03 -1.299999999999999886e-04 3.350000000000000113e-04 6.101999999999999785e-03 -7.299999999999999903e-05 3.510000000000000208e-04 1.090999999999999956e-03 6.899999999999999667e-05 -8.270000000000000441e-04 5.878000000000000412e-03 -2.500000000000000120e-05 -9.290000000000000297e-04 -6.274000000000000063e-03 1.210000000000000002e-04 -9.340000000000000429e-04 -6.324999999999999893e-03 1.210000000000000002e-04 -3.220000000000000206e-04 7.089999999999999948e-04 1.259999999999999998e-04 6.570000000000000319e-04 5.916000000000000252e-03 1.930000000000000021e-04 3.099999999999999999e-04 1.054999999999999948e-03 2.039999999999999984e-04 -8.189999999999999581e-04 5.935000000000000171e-03 -5.940000000000000184e-04 -5.689999999999999529e-04 -6.356999999999999804e-03 -2.159999999999999919e-04 -9.060000000000000128e-04 -6.322000000000000362e-03 4.600000000000000004e-05 -2.049999999999999956e-04 1.015999999999999976e-03 4.490000000000000176e-04 3.930000000000000117e-04 6.106000000000000316e-03 1.029999999999999964e-04 9.200000000000000007e-05 2.849999999999999886e-04 1.920000000000000049e-04 1.015000000000000060e-03 4.772000000000000200e-03 -1.369999999999999961e-04 -1.111999999999999924e-03 -6.420000000000000359e-03 -9.699999999999999963e-05 -5.180000000000000143e-04 -5.987000000000000134e-03 3.269999999999999795e-04 3.499999999999999693e-05 6.769999999999999759e-04 6.419999999999999925e-04 -2.579999999999999828e-04 5.550000000000000246e-03 -2.239999999999999966e-04 1.150000000000000035e-04 4.550000000000000008e-04 4.409999999999999858e-04 7.640000000000000306e-04 5.000000000000000104e-03 -2.199999999999999943e-05 -9.110000000000000259e-04 -6.406000000000000236e-03 -5.259999999999999919e-04 -4.189999999999999931e-04 -6.189000000000000057e-03 1.050000000000000044e-04 -6.949999999999999798e-04 3.579999999999999741e-04 7.299999999999999903e-05 -1.990000000000000124e-04 5.159999999999999656e-03 2.919999999999999961e-04 8.899999999999999491e-05 4.240000000000000062e-04 -2.000000000000000096e-04 7.470000000000000511e-04 4.943000000000000345e-03 5.300000000000000078e-05 -1.167000000000000069e-03 -6.490000000000000109e-03 4.910000000000000085e-04 -3.789999999999999966e-04 -6.311999999999999902e-03 3.600000000000000091e-05 5.300000000000000078e-05 6.909999999999999910e-04 -2.900000000000000017e-04 -2.400000000000000061e-04 5.446000000000000320e-03 9.399999999999999448e-05 6.499999999999999702e-04 2.439999999999999949e-04 1.920000000000000049e-04 1.111999999999999924e-03 6.034000000000000301e-03 5.230000000000000274e-04 -2.329999999999999986e-04 -6.067000000000000344e-03 -5.000000000000000240e-05 -5.550000000000000462e-04 -6.376999999999999856e-03 3.649999999999999816e-04 -7.899999999999999579e-05 1.283999999999999985e-03 1.820000000000000057e-04 1.008999999999999914e-03 6.068999999999999742e-03 -6.000000000000000152e-05 7.730000000000000326e-04 4.710000000000000102e-04 -2.880000000000000073e-04 1.103000000000000031e-03 6.381000000000000387e-03 -1.000000000000000082e-05 -2.849999999999999886e-04 -5.930999999999999640e-03 -5.689999999999999529e-04 -2.979999999999999793e-04 -6.403999999999999970e-03 1.440000000000000036e-04 -8.100000000000000375e-05 1.121999999999999950e-03 1.050000000000000044e-04 6.579999999999999478e-04 6.087999999999999662e-03 1.679999999999999907e-04 7.839999999999999747e-04 5.180000000000000143e-04 5.980000000000000072e-04 1.002000000000000069e-03 6.339000000000000017e-03 -6.170000000000000354e-04 -1.630000000000000047e-04 -6.189000000000000057e-03 5.000000000000000104e-04 -2.320000000000000014e-04 -6.467999999999999791e-03 -7.399999999999999623e-05 -8.399999999999999535e-05 1.322999999999999957e-03 1.350000000000000017e-04 1.013999999999999927e-03 6.126000000000000369e-03 7.499999999999999343e-05 1.289999999999999914e-04 -6.300000000000000261e-04 2.090000000000000115e-04 4.500000000000000283e-05 5.509000000000000008e-03 6.099999999999999872e-05 -9.190000000000000035e-04 -6.688999999999999634e-03 -1.699999999999999987e-05 -4.339999999999999782e-04 -7.868999999999999259e-03 7.899999999999999579e-05 -5.800000000000000034e-05 4.009999999999999893e-04 -2.259999999999999910e-04 1.111999999999999924e-03 5.931999999999999773e-03 -2.300000000000000070e-04 6.499999999999999431e-05 -8.800000000000000313e-04 1.099999999999999971e-05 4.809999999999999823e-04 5.564999999999999634e-03 -1.379999999999999933e-04 -1.221000000000000080e-03 -7.169000000000000025e-03 -3.179999999999999776e-04 -4.929999999999999487e-04 -7.793999999999999713e-03 1.399999999999999877e-04 1.099999999999999971e-05 2.210000000000000050e-04 4.899999999999999842e-05 1.196000000000000014e-03 5.957999999999999755e-03 3.530000000000000152e-04 6.099999999999999872e-05 -9.070000000000000371e-04 2.559999999999999884e-04 4.979999999999999618e-04 5.570000000000000298e-03 -9.899999999999999404e-05 -8.310000000000000329e-04 -6.726000000000000208e-03 2.100000000000000087e-04 -5.100000000000000366e-04 -7.710999999999999972e-03 2.799999999999999755e-04 -4.500000000000000283e-05 2.919999999999999961e-04 5.680000000000000370e-04 1.031000000000000015e-03 5.934000000000000039e-03 1.259999999999999998e-04 -1.550000000000000000e-04 9.990000000000001049e-04 1.669999999999999935e-04 4.270000000000000249e-04 6.765000000000000180e-03 2.880000000000000073e-04 -6.160000000000000111e-04 -6.655000000000000325e-03 -1.079999999999999960e-04 -1.628000000000000107e-03 -7.015000000000000402e-03 4.600000000000000139e-04 -2.290000000000000098e-04 6.679999999999999740e-04 5.010000000000000347e-04 7.510000000000000399e-04 6.065000000000000079e-03 -3.800000000000000209e-05 2.090000000000000115e-04 7.510000000000000399e-04 5.640000000000000482e-04 3.099999999999999999e-04 6.596000000000000300e-03 -5.099999999999999960e-05 -6.380000000000000037e-04 -6.689999999999999766e-03 -1.959999999999999937e-04 -1.696000000000000025e-03 -6.422999999999999890e-03 8.700000000000000051e-05 -1.830000000000000029e-04 9.259999999999999568e-04 5.800000000000000034e-05 8.890000000000000333e-04 6.473999999999999720e-03 1.289999999999999914e-04 1.769999999999999926e-04 6.679999999999999740e-04 -2.460000000000000164e-04 2.400000000000000061e-04 6.668999999999999581e-03 -2.570000000000000127e-04 -6.859999999999999779e-04 -6.590000000000000371e-03 2.500000000000000120e-05 -1.699999999999999905e-03 -6.385000000000000051e-03 -9.000000000000000567e-05 -2.750000000000000166e-04 6.570000000000000319e-04 -2.290000000000000098e-04 7.489999999999999913e-04 6.157000000000000146e-03 1.359999999999999989e-04 6.880000000000000265e-04 -1.459999999999999981e-04 1.520000000000000084e-04 3.350000000000000113e-04 5.439000000000000258e-03 6.299999999999999990e-05 -2.629999999999999959e-04 -7.117000000000000062e-03 3.100000000000000135e-05 2.759999999999999867e-04 -6.917000000000000405e-03 2.280000000000000126e-04 -1.230000000000000082e-04 -3.429999999999999889e-04 2.269999999999999882e-04 -4.510000000000000120e-04 5.897000000000000332e-03 1.589999999999999888e-04 6.239999999999999887e-04 -1.900000000000000105e-05 -2.990000000000000036e-04 2.779999999999999811e-04 5.068999999999999721e-03 -1.359999999999999989e-04 -1.259999999999999998e-04 -7.655000000000000346e-03 -1.340000000000000045e-04 7.399999999999999894e-04 -6.518000000000000356e-03 1.240000000000000054e-04 -4.949999999999999973e-04 -8.700000000000000051e-05 1.200000000000000030e-04 -8.859999999999999603e-04 5.787999999999999742e-03 -6.099999999999999872e-05 6.350000000000000392e-04 3.999999999999999819e-06 5.770000000000000389e-04 2.410000000000000033e-04 5.015000000000000360e-03 -1.000000000000000048e-04 -2.629999999999999959e-04 -7.169000000000000025e-03 -5.199999999999999680e-05 6.840000000000000377e-04 -6.366000000000000131e-03 1.160000000000000007e-04 -8.799999999999999771e-05 -3.319999999999999926e-04 9.000000000000000567e-05 -4.569999999999999952e-04 5.948000000000000162e-03