-1.412881309319999900e+03
-1.412881310429999985e+03
-1.412881312449999996e+03
-1.412881315639999912e+03
-1.412881320039999991e+03
