1.722330033222036483e-01 -4.176998694445390597e-02 2.955299909102180114e-02 -1.248999890825000557e-03 -1.338000093017811766e-03 1.446000008230796273e-03 1.620000181001821137e-04 -2.039999872644412428e-04 4.839999993095541993e-04 -5.681999892112927011e-03 -1.319000428259774508e-03 1.473000032681336937e-03 1.505100078998955135e-02 -1.146099887558833103e-02 -1.391500007163122207e-02 -1.670699898784910875e-02 -1.444700127811829674e-02 -1.457999989334900562e-02 -6.810000013381098177e-04 1.199994841788211521e-05 -7.799999625296492704e-05 1.122000005051405859e-03 -8.999991546049353403e-05 -3.180000061033789560e-04 1.318000062147636157e-03 -8.879999012262981177e-04 -9.080000063881671834e-04 1.260003642789850147e-04 -5.023999993309381275e-03 -2.841999995677146201e-03 -1.273999947793862976e-03 -7.240000968144272775e-04 -4.619999922445175542e-04 1.210000488019475365e-04 -6.459999908587256553e-04 -1.000000002262830982e-05 -3.969999259879651099e-04 -8.900000288125731532e-04 1.214000003080382755e-03 -3.200001657991543799e-05 1.919999972072501139e-04 -3.730000000151489198e-04 4.969999762869469319e-04 3.050000374713685513e-04 -1.170000030480254936e-04 -1.328999703338168501e-03 -3.881000099944240285e-03 5.690000112125274956e-04 -3.742008223966566873e-03 1.101109997357671427e-01 1.879699991066801149e-02 -6.553999659473839709e-03 -3.038000475637235662e-03 2.006600003921172118e-02 3.980000662291188936e-04 6.410000508585014063e-04 2.078099999716281898e-02 -1.028999984591526425e-03 1.230999941812383489e-03 1.965800000445031351e-02 -4.199995640631568614e-04 -4.110000009127149495e-03 2.266300000642372178e-02 8.370005105808555517e-04 -5.061999913581450260e-03 2.314200000043619213e-02 -1.350999961715762011e-03 9.169999173016187173e-04 1.950000000654135424e-02 1.238000081948264098e-03 4.090001140572902720e-04 2.044999999275787933e-02 -1.178000017221368656e-03 1.671999930674326635e-03 1.978900000483227103e-02 -6.719997746604692906e-04 -1.506000030657203082e-03 2.018900000521365104e-02 -1.474999819086817094e-03 -9.280000915171568139e-04 2.006000000906874720e-02 -9.299977274845892589e-05 -1.497999986411796070e-03 2.064500000200966343e-02 -2.614100062834030791e-02 1.102899806018853464e-02 3.728100013327793200e-02 -8.110000082708006914e-04 1.589999958928072074e-03 2.028700000288839039e-02 -3.392999871373271557e-03 -2.360002365670030918e-04 2.006900001896460423e-02 -3.724599840428112485e-02 -2.127900281938874261e-02 -2.466999773152370352e-03 -2.406799896932338215e-02 -1.598400185251573971e-02 -3.228299985118207593e-02 -2.278999996769807187e-03 -1.537000192812358048e-03 -2.047399998588497402e-02 -1.880000130278303497e-03 2.419998375518982636e-04 -2.028599998986439779e-02 -3.935000119202387153e-02 1.630099703133701047e-02 7.396000200923627359e-03 -1.179992577332620934e-04 -1.235100004364030231e-02 -3.475499998701153670e-02 7.390000179688572699e-04 -1.616999962988008169e-03 -1.890000000246399095e-02 -6.500002697328404171e-04 2.093999930687985046e-03 -2.017499999850374051e-02 -3.346000181747820369e-03 1.000999727751731086e-03 -1.921099998253043839e-02 -8.180001693892834580e-04 7.829999181978629461e-04 -1.995899999626687960e-02 6.919997858696477853e-04 1.304000031433636764e-03 -2.092600000512227429e-02 -1.742999974787108088e-03 -1.790000151759118868e-03 -1.995799998859090416e-02 2.194999950963575242e-03 -8.429998544026325036e-04 -2.043400001127403109e-02 -4.737000321506023952e-03 2.795999621825851628e-03 -1.993599997664530221e-02 3.929998659351513252e-04 2.990000095543670126e-04 -2.019100000246796742e-02 -2.830999998417111849e-03 -1.448000233640295330e-03 -1.955299998292691840e-02 -3.840000351657289323e-03 3.015999687220941722e-03 -2.238399998181636597e-02
1.721440033201709907e-01 -4.174398695119699298e-02 2.954099909148709749e-02 -1.247999890911670679e-03 -1.337000092944179343e-03 1.444000008224277567e-03 1.620000181057019767e-04 -2.039999872634423673e-04 4.849999993095542236e-04 -5.675999892345336660e-03 -1.316000427806991550e-03 1.472000032645221163e-03 1.504200078970910869e-02 -1.145699887626500796e-02 -1.391100007158553760e-02 -1.669699898843207339e-02 -1.443900127735799933e-02 -1.457599989341219586e-02 -6.830000012679994991e-04 1.099994826562272463e-05 -7.899999624092634990e-05 1.122000004894625454e-03 -8.799991546149240154e-05 -3.190000061053767312e-04 1.314000062158676273e-03 -8.879999015268213959e-04 -9.060000063660877912e-04 1.260003639008337283e-04 -5.018999993309381479e-03 -2.841999995682140470e-03 -1.272999947869493317e-03 -7.230000967387969959e-04 -4.619999922510362655e-04 1.240000485860964688e-04 -6.429999906298371681e-04 -8.000000042184505377e-06 -3.959999259934849215e-04 -8.900000287379417714e-04 1.213000003074862949e-03 -3.000001650980504254e-05 1.909999973575117558e-04 -3.740000000251897405e-04 4.939999762869468590e-04 3.050000372444777795e-04 -1.170000030314659317e-04 -1.329999703419318564e-03 -3.880000100020869393e-03 5.680000112170485943e-04 -3.740008221033546462e-03 1.100719997359154018e-01 1.879399991069593059e-02 -6.550999659680299160e-03 -3.036000475420334247e-03 2.005600003919316351e-02 3.960000657792094210e-04 6.460000506942554154e-04 2.076799999716886017e-02 -1.023999984657764659e-03 1.230999942178548270e-03 1.964600000442271593e-02 -4.219995639615750269e-04 -4.112000009287400046e-03 2.265400000643675790e-02 8.390005106012873902e-04 -5.062999913440178849e-03 2.313200000042615195e-02 -1.350999961944300554e-03 9.189999172876344010e-04 1.948600000653935571e-02 1.238000081926184754e-03 4.090001140532947702e-04 2.044599999275787880e-02 -1.178000017130826716e-03 1.669999930663339065e-03 1.977800000483426537e-02 -6.669997747101479631e-04 -1.506000030288041783e-03 2.018000000518605300e-02 -1.471999819175134720e-03 -9.280000913062480495e-04 2.004400000905218540e-02 -9.099977259332629731e-05 -1.500999986273521009e-03 2.063200000200162212e-02 -2.611800062754866120e-02 1.101699806190705420e-02 3.726000013316296822e-02 -8.120000082558888159e-04 1.588999958841453945e-03 2.027600000289490542e-02 -3.391999871341799637e-03 -2.370002364993638625e-04 2.006100001896008247e-02 -3.721299840537142106e-02 -2.126400281688495611e-02 -2.458999773349508471e-03 -2.404699897006147905e-02 -1.597300185091051969e-02 -3.226599985130898518e-02 -2.278999996768159633e-03 -1.536000192798374093e-03 -2.045999998588597310e-02 -1.873000130427916396e-03 2.449998380952943125e-04 -2.027199998990603450e-02 -3.931900119111795405e-02 1.628799703366756377e-02 7.382000200765497649e-03 -1.199992574566926168e-04 -1.235400004378257172e-02 -3.474599998699749726e-02 7.340000182233472623e-04 -1.619999963361164934e-03 -1.889500000243339237e-02 -6.480002696776419012e-04 2.093999930849234532e-03 -2.016499999851478070e-02 -3.341000181406660312e-03 9.969997281368745117e-04 -1.920399998255404098e-02 -8.180001690906345485e-04 7.799999182108483626e-04 -1.994599999626387940e-02 6.909997860816267413e-04 1.302000031368993980e-03 -2.091500000511475540e-02 -1.740999974759508588e-03 -1.790000151602863868e-03 -1.995299998860194240e-02 2.194999951125875537e-03 -8.449998544006348013e-04 -2.043200001127203069e-02 -4.733000321369675023e-03 2.794999622139360696e-03 -1.992499997666638198e-02 3.919998660659801339e-04 2.980000094887255398e-04 -2.018100000246144873e-02 -2.826999998658914423e-03 -1.444000233326786465e-03 -1.954199998295299071e-02 -3.835000351039559701e-03 3.008999687615074737e-03 -2.236799998183697236e-02
1.719440033161813985e-01 -4.169298696634701762e-02 2.951699909254012696e-02 -1.246999890911670763e-03 -1.337000092868549086e-03 1.444000008218757677e-03 1.580000180355915665e-04 -2.029999875649645237e-04 4.859999993306347702e-04 -5.668999892420967940e-03 -1.315000427277579834e-03 1.472000032605583382e-03 1.502400078886226460e-02 -1.144499887761536543e-02 -1.390000007149816592e-02 -1.667799898965706754e-02 -1.442200127591003814e-02 -1.456499989353405439e-02 -6.840000011813294860e-04 9.999948191990224472e-06 -7.699999623440761704e-05 1.122000004748884830e-03 -8.599991546049354522e-05 -3.180000061073744578e-04 1.313000062023975080e-03 -8.859999015994549781e-04 -9.030000063625656876e-04 1.260003636203921242e-04 -5.014999993305385879e-03 -2.837999995686135875e-03 -1.273999947723752609e-03 -7.250000968154260688e-04 -4.629999922435186488e-04 1.250000486672465862e-04 -6.439999905532080597e-04 -7.000000046705483851e-06 -3.979999259879651342e-04 -8.900000288882034104e-04 1.214000003085902646e-03 -3.200001657991543799e-05 1.919999972072501139e-04 -3.730000000151489198e-04 4.939999764492471537e-04 3.030000372464755360e-04 -1.150000030294681864e-04 -1.327999703716319655e-03 -3.876000099868610015e-03 5.690000112020132282e-04 -3.729008216231849068e-03 1.100079997367403584e-01 1.878699991069913977e-02 -6.546999659724457750e-03 -3.036000475125804222e-03 2.004800003917108289e-02 3.940000657350505768e-04 6.460000505350038972e-04 2.075999999717990235e-02 -1.020999984388362789e-03 1.226999942399445691e-03 1.964000000441015054e-02 -4.209995640498927021e-04 -4.112000009227751579e-03 2.263800000643123936e-02 8.380005106106792672e-04 -5.063999913527795528e-03 2.312000000043267292e-02 -1.350999961815119383e-03 9.169999172836388506e-04 1.948200000654135358e-02 1.237000081817435457e-03 4.100001139716712303e-04 2.043999999276240043e-02 -1.178000017158425949e-03 1.669999930658344579e-03 1.977300000483426384e-02 -6.659997747598267329e-04 -1.506000030221401297e-03 2.017100000518053451e-02 -1.470999819132623671e-03 -9.290000912366110693e-04 2.003800000904766218e-02 -8.999977269655583170e-05 -1.499999986202885105e-03 2.062700000199510150e-02 -2.607300062593224596e-02 1.099299806527445286e-02 3.722400013293854226e-02 -8.120000082244174626e-04 1.587999958833463026e-03 2.026800000289590703e-02 -3.388999871478148504e-03 -2.360002362834607236e-04 2.005000001894252301e-02 -3.716399840681613997e-02 -2.124300281315310429e-02 -2.432999773640957646e-03 -2.400599897131629884e-02 -1.595400184777671579e-02 -3.223299985155426983e-02 -2.276999996939851455e-03 -1.533000192637124859e-03 -2.044999998590001089e-02 -1.871000130431788684e-03 2.459998382595402866e-04 -2.025899998991807435e-02 -3.926800118920840965e-02 1.626099703750073094e-02 7.358000200510955019e-03 -1.209992576653760941e-04 -1.235000004384122045e-02 -3.472899998699597451e-02 7.280000185369082510e-04 -1.623999963812948824e-03 -1.889300000239628116e-02 -6.470002694711827866e-04 2.091999930934853712e-03 -2.015499999851830260e-02 -3.332000181043421033e-03 9.929997288285344684e-04 -1.919299998259972606e-02 -8.190001688731357024e-04 7.779999181472047791e-04 -1.993399999625636299e-02 6.889997863747558205e-04 1.299000031229720006e-03 -2.090300000510072337e-02 -1.738999974623160142e-03 -1.791000151440615964e-03 -1.994199998861198586e-02 2.194999951332334519e-03 -8.469998543906459868e-04 -2.042200001127003270e-02 -4.730000321011954695e-03 2.790999622376239692e-03 -1.991499997667894525e-02 3.899998662078486443e-04 2.970000093494515607e-04 -2.016900000244940816e-02 -2.824999998598195367e-03 -1.444000233164538429e-03 -1.953099998296402989e-02 -3.830000349416557825e-03 2.988999688013203697e-03 -2.234799998184459555e-02
1.716720033104561505e-01 -4.161998698695539706e-02 2.947999909396860699e-02 -1.244999891079490899e-03 -1.335000092720285258e-03 1.441000008205720181e-03 1.600000180300717250e-04 -2.029999874147028847e-04 4.849999993195950741e-04 -5.658999892583268208e-03 -1.313000426523274963e-03 1.470000032548386898e-03 1.500000078787520029e-02 -1.143099887941750707e-02 -1.388700007137967478e-02 -1.665499899117354327e-02 -1.440100127415755785e-02 -1.455199989368198728e-02 -6.850000012679994393e-04 1.099994811436220840e-05 -7.899999622988663746e-05 1.119000004748884865e-03 -8.599991568738431702e-05 -3.180000060908148960e-04 1.313000061942825149e-03 -8.849999016004539377e-04 -9.040000063635644789e-04 1.260003631831701154e-04 -5.008999993302390083e-03 -2.834999995692129380e-03 -1.270999947642602497e-03 -7.260000965875364459e-04 -4.619999922590793651e-04 1.230000483536858639e-04 -6.399999907064664447e-04 -9.000000039661279521e-06 -3.949999259990048415e-04 -8.900000286633103896e-04 1.212000003069342927e-03 -3.300001658543529818e-05 1.919999971306209812e-04 -3.740000000096290540e-04 4.899999764382073847e-04 3.030000369419567560e-04 -1.170000030073887559e-04 -1.327999704105510721e-03 -3.871000099870607319e-03 5.670000111970189107e-04 -3.723008211780703524e-03 1.099489997371921463e-01 1.878499991072495046e-02 -6.540999659763097052e-03 -3.036000474679014915e-03 2.004100003913796349e-02 3.930000656908918112e-04 6.460000504513826363e-04 2.075199999718542118e-02 -1.015999983973220246e-03 1.220999942770604812e-03 1.963300000438854623e-02 -4.219995638561210784e-04 -4.115000009309375054e-03 2.263200000643975432e-02 8.370005108469620245e-04 -5.067999913615411738e-03 2.310800000044218802e-02 -1.349999961696978076e-03 9.149999173532759149e-04 1.947600000653783303e-02 1.238000081837866946e-03 4.090001140373127628e-04 2.042999999275788015e-02 -1.174000016889023947e-03 1.665999930954872258e-03 1.976700000481618202e-02 -6.659997748039855284e-04 -1.506000030229392300e-03 2.016300000518053345e-02 -1.467999819490343203e-03 -9.250000910197090634e-04 2.002800000902710958e-02 -9.099977258945415057e-05 -1.501999986286506415e-03 2.061900000200261873e-02 -2.602200062393216634e-02 1.096399806909663724e-02 3.718900013268600091e-02 -8.090000081117959974e-04 1.585999959053361512e-03 2.026100000288134570e-02 -3.386999871511267579e-03 -2.360002361381934889e-04 2.004400001893148417e-02 -3.710499840874059013e-02 -2.121500280865595486e-02 -2.397999773994598065e-03 -2.395699897285155991e-02 -1.593100184403387770e-02 -3.219599985184772029e-02 -2.274999996993402537e-03 -1.532000192481868710e-03 -2.044599998591204934e-02 -1.868000130398669379e-03 2.459998384924243111e-04 -2.025299998993463496e-02 -3.920800118691684932e-02 1.622799704200159066e-02 7.321000200212726856e-03 -1.209992575345472882e-04 -1.235100004383123291e-02 -3.471899998699497225e-02 7.200000188283895222e-04 -1.627999964419988730e-03 -1.889500000234812377e-02 -6.460002693033626859e-04 2.089999931013480222e-03 -2.015199999852182455e-02 -3.318000180384828371e-03 9.839997298833626747e-04 -1.919699998266801225e-02 -8.170001687975055049e-04 7.769999182984652693e-04 -1.993399999626640703e-02 6.869997866402855575e-04 1.296000031085451764e-03 -2.089600000508668592e-02 -1.738999974374190027e-03 -1.794000151436620427e-03 -1.993799998860898773e-02 2.195999951586824657e-03 -8.499998543100213168e-04 -2.041700001127256039e-02 -4.722000320622764084e-03 2.785999622983279488e-03 -1.991299997671811331e-02 3.899998663110781894e-04 2.960000093544459137e-04 -2.016400000244841090e-02 -2.821999998651746316e-03 -1.443000232933652240e-03 -1.952699998298158823e-02 -3.821000347513113949e-03 2.964999688709858087e-03 -2.233199998187030202e-02
1.712630033023830600e-01 -4.151798701795310353e-02 2.941499909612434530e-02 -1.242999892213944709e-03 -1.320000092569024921e-03 1.441000008179697377e-03 1.690000175762901291e-04 -1.969999867340305861e-04 4.849999992639231357e-04 -5.652999893016616949e-03 -1.308000426079482161e-03 1.460000032510273479e-03 1.495400078688978278e-02 -1.141599888286952934e-02 -1.386000007114074513e-02 -1.661099899268672977e-02 -1.437800127078887012e-02 -1.451099989394783428e-02 -6.940000019210724146e-04 1.999994743868425192e-05 -7.399999618919781785e-05 1.127000005981048303e-03 -1.019999150783466852e-04 -3.140000061189916953e-04 1.315000060230928297e-03 -8.619999014441990289e-04 -8.990000063975783816e-04 1.170003622402634855e-04 -4.994999993962085348e-03 -2.813999995656435091e-03 -1.263999948112943649e-03 -7.200000960611213424e-04 -4.649999923037116505e-04 1.060000486931981839e-04 -6.449999919991727428e-04 -1.599999994082935400e-05 -3.889999255176240268e-04 -8.960000282045343977e-04 1.217000003042217069e-03 -2.800001731413860712e-05 2.019999975137666169e-04 -3.690000000472171376e-04 4.839999756702884699e-04 3.160000365271314004e-04 -7.800000298725501388e-05 -1.328999705011426171e-03 -3.858000099932253762e-03 5.810000111895534348e-04 -3.728008203834006634e-03 1.098439997368149817e-01 1.878599991085743576e-02 -6.527999659370033007e-03 -3.042000473706808587e-03 2.003000003907219953e-02 4.040000662462551258e-04 6.380000512743256094e-04 2.074299999713269740e-02 -1.009999982628435574e-03 1.202999943221389834e-03 1.963000000437340603e-02 -4.249995630037564230e-04 -4.127000009546254004e-03 2.262200000646830134e-02 8.360005099968220547e-04 -5.057999913708023827e-03 2.309100000043771972e-02 -1.342999962318579743e-03 9.229999178796910670e-04 1.947300000649120413e-02 1.230000082046550517e-03 4.050001134152897246e-04 2.041299999280603295e-02 -1.178000016468361624e-03 1.659999930646358047e-03 1.976100000484425426e-02 -6.589997750104445570e-04 -1.504000029709969205e-03 2.015300000513989623e-02 -1.462999819296571975e-03 -9.280000906475509943e-04 2.002200000900250867e-02 -9.699977194742080515e-05 -1.510999986747280088e-03 2.061200000204472735e-02 -2.594600062106480753e-02 1.092199807478859766e-02 3.713300013230844132e-02 -7.980000082205454363e-04 1.586999959879301222e-03 2.025500000281962518e-02 -3.378999872094230750e-03 -2.280002355291559514e-04 2.004800001887933544e-02 -3.701899841232009908e-02 -2.116300280208782691e-02 -2.333999774521247281e-03 -2.388099897483730860e-02 -1.590000183822105201e-02 -3.213099985229819766e-02 -2.272999997369905788e-03 -1.526000192316624010e-03 -2.043199998592908073e-02 -1.867000130090628544e-03 2.419998385690534280e-04 -2.025199998993615705e-02 -3.912000118221780481e-02 1.616199704860411118e-02 7.268000199792904598e-03 -1.299992577305432873e-04 -1.234600004447894070e-02 -3.468599998695029440e-02 7.140000194295594233e-04 -1.634999964860784846e-03 -1.888200000230801437e-02 -6.500002687021927362e-04 2.082999930723945271e-03 -2.013899999849275493e-02 -3.297000178416793510e-03 9.589997314855823766e-04 -1.918299998275895674e-02 -8.070001681963356486e-04 7.699999190677532697e-04 -1.992099999631461241e-02 6.809997858210401324e-04 1.308000030647652086e-03 -2.088000000506555140e-02 -1.735999974664023324e-03 -1.789000151193747635e-03 -1.992199998863054128e-02 2.196999951070100539e-03 -8.419998542184090745e-04 -2.040100001128606830e-02 -4.716000319804095238e-03 2.776999623462032916e-03 -1.988799997674224260e-02 3.989998663679244833e-04 2.970000100590913187e-04 -2.014000000249908939e-02 -2.820999998624147166e-03 -1.443000232853027497e-03 -1.952199998298711006e-02 -3.818000344862760090e-03 2.931999688964717545e-03 -2.230399998185389823e-02
1.707170032920024560e-01 -4.138598705931913896e-02 2.934299909900633593e-02 -1.231999892728444885e-03 -1.314000091748079900e-03 1.430000008112985608e-03 1.250000192385082229e-04 -2.199999900757461521e-04 4.709999995297709029e-04 -5.629999894652307213e-03 -1.289000424375946275e-03 1.424000032364338125e-03 1.485700078342734945e-02 -1.136999889020266601e-02 -1.385700007065126735e-02 -1.653499899539838044e-02 -1.434200126503897520e-02 -1.450899989440330301e-02 -7.169999997862888707e-04 -1.100005433876890866e-05 -1.119999960312759808e-04 1.143000001692203154e-03 -4.499991386426722658e-05 -3.100000062642453615e-04 1.314000062637832702e-03 -8.919999014948573699e-04 -8.740000063620922705e-04 8.500035866578647568e-05 -4.949999996413219361e-03 -2.844999995524748974e-03 -1.234999949446689100e-03 -7.020000938628496090e-04 -4.599999924817672328e-04 1.180000460776105400e-04 -6.109999910996008086e-04 -2.400000004102941938e-05 -4.209999267326512023e-04 -8.830000306666555172e-04 1.175000003205867042e-03 -2.400001800255521702e-05 2.129999978422584313e-04 -3.430000000802841298e-04 4.889999762516033729e-04 3.070000368873028723e-04 -9.600000300586441289e-05 -1.303999704693993393e-03 -3.863000098052485082e-03 5.700000110565513764e-04 -3.702008193979416852e-03 1.097109997387444164e-01 1.874899991084676490e-02 -6.510999659526814191e-03 -3.040000472422093800e-03 2.002900003897636547e-02 3.690000651068581889e-04 6.500000485853138022e-04 2.070099999731390278e-02 -9.839999836872591939e-04 1.216999945187776429e-03 1.963000000421590702e-02 -4.359995629739327823e-04 -4.129000010400162360e-03 2.260000000653101734e-02 8.450005115580348043e-04 -5.081999913073299499e-03 2.304500000041201022e-02 -1.337999962343954614e-03 9.209999182258783983e-04 1.944100000646560231e-02 1.231000080279455499e-03 4.280001134859255673e-04 2.040799999277753685e-02 -1.206000016311004454e-03 1.654999928488755812e-03 1.972100000500380534e-02 -6.379997737578494473e-04 -1.521000028127727144e-03 2.014700000504095895e-02 -1.414999820106425162e-03 -9.170000870133030932e-04 2.002600000872656327e-02 -8.499977318345652659e-05 -1.493999985830727142e-03 2.062100000196151126e-02 -2.585100061522743742e-02 1.083999808190755018e-02 3.706700013186596532e-02 -8.120000105595634281e-04 1.617999958821476599e-03 2.025600000286593982e-02 -3.376999871568114008e-03 -2.370002354058639517e-04 2.002000001887728475e-02 -3.687099841427989716e-02 -2.113300279083860783e-02 -2.277999775368152232e-03 -2.373799897803865674e-02 -1.585300182734199551e-02 -3.206699985313447854e-02 -2.296999996015728750e-03 -1.545000194146733128e-03 -2.044699998577762662e-02 -1.862000130559898553e-03 2.519998389991462916e-04 -2.019999998997374507e-02 -3.899900117992013970e-02 1.612599705767846225e-02 7.191000199160962371e-03 -1.369992582511398002e-04 -1.233700004497938554e-02 -3.465699998692064326e-02 7.090000199352440970e-04 -1.642999965256915869e-03 -1.890000000227242197e-02 -6.350002700453302121e-04 2.101999931875379608e-03 -2.012199999859453151e-02 -3.297000179631821154e-03 9.719997314436294895e-04 -1.922499998277194325e-02 -8.240001668018717652e-04 7.519999177880321451e-04 -1.991499999620279307e-02 6.919997853633865197e-04 1.315000031492570467e-03 -2.086700000513326200e-02 -1.731999974995791476e-03 -1.786000150910205166e-03 -1.994099998865561663e-02 2.173999952938777611e-03 -8.669998559619004506e-04 -2.040500001113413828e-02 -4.691000319960875360e-03 2.778999625351790629e-03 -1.988899997688223578e-02 3.909998668161861592e-04 2.910000094530504019e-04 -2.014100000244893607e-02 -2.792999997474781160e-03 -1.459000230746367770e-03 -1.953299998312568037e-02 -3.820000338362429700e-03 2.846999688826443164e-03 -2.229099998175795155e-02
