2.324850000000000083e+00 3.090829999999999966e+00 2.992640000000000189e+00 4.255599999999999938e-01 3.822109999999999896e+00 1.418930000000000025e+00 1.976839999999999931e+00 1.081679999999999975e+00 1.418949999999999934e+00 5.728760000000000296e+00 3.090829999999999966e+00 2.992640000000000189e+00 3.829460000000000086e+00 3.822119999999999962e+00 1.418919999999999959e+00 5.380760000000000431e+00 1.081669999999999909e+00 1.418949999999999934e+00 9.132659999999999556e+00 3.090829999999999966e+00 2.992649999999999810e+00 7.233380000000000365e+00 3.822119999999999962e+00 1.418919999999999959e+00 8.784670000000000201e+00 1.081669999999999909e+00 1.418940000000000090e+00 1.098531000000000013e+01 5.831290000000000084e+00 2.992649999999999810e+00 2.626209999999999933e+00 8.571740000000000137e+00 2.992640000000000189e+00 2.278220000000000134e+00 6.562590000000000146e+00 1.418949999999999934e+00 4.177489999999999704e+00 5.831299999999999706e+00 2.992640000000000189e+00 6.030140000000000278e+00 8.571740000000000137e+00 2.992649999999999810e+00 5.682129999999999903e+00 6.562579999999999636e+00 1.418949999999999934e+00 7.581389999999999851e+00 5.831310000000000215e+00 2.992640000000000189e+00 9.434049999999999159e+00 8.571749999999999758e+00 2.992649999999999810e+00 9.086050000000000182e+00 6.562579999999999636e+00 1.418949999999999934e+00 1.124859999999999971e+00 4.342789999999999928e+00 5.847870000000000346e+00 2.676159999999999872e+00 1.602360000000000007e+00 5.847900000000000098e+00 4.528780000000000250e+00 4.342800000000000438e+00 5.847870000000000346e+00 6.080070000000000086e+00 1.602349999999999941e+00 5.847900000000000098e+00 7.932680000000000398e+00 4.342800000000000438e+00 5.847870000000000346e+00 9.483980000000000743e+00 1.602349999999999941e+00 5.847900000000000098e+00 2.977510000000000101e+00 7.083269999999999733e+00 5.847889999999999588e+00 6.381439999999999557e+00 7.083280000000000243e+00 5.847889999999999588e+00 9.785349999999999326e+00 7.083280000000000243e+00 5.847900000000000098e+00 3.024160000000000181e+00 3.611509999999999998e+00 7.421599999999999753e+00 6.428079999999999572e+00 3.611509999999999998e+00 7.421599999999999753e+00 9.831970000000000098e+00 3.611509999999999998e+00 7.421590000000000131e+00 1.168463000000000029e+01 6.351980000000000182e+00 7.421599999999999753e+00 3.325530000000000097e+00 9.092430000000000234e+00 7.421599999999999753e+00 4.876789999999999736e+00 6.351980000000000182e+00 7.421590000000000131e+00 6.729440000000000310e+00 9.092430000000000234e+00 7.421590000000000131e+00 8.280709999999999127e+00 6.351980000000000182e+00 7.421599999999999753e+00 1.013335999999999970e+01 9.092430000000000234e+00 7.421599999999999753e+00 3.723450000000000149e+00 4.132200000000000095e+00 1.185055999999999976e+01 1.824170000000000069e+00 4.863480000000000025e+00 1.027683000000000035e+01 3.375449999999999839e+00 2.123040000000000038e+00 1.027684999999999960e+01 7.127379999999999605e+00 4.132200000000000095e+00 1.185055000000000014e+01 5.228080000000000283e+00 4.863489999999999647e+00 1.027682000000000073e+01 6.779379999999999740e+00 2.123029999999999973e+00 1.027684999999999960e+01 1.053129000000000026e+01 4.132200000000000095e+00 1.185054000000000052e+01 8.631999999999999673e+00 4.863480000000000025e+00 1.027682000000000073e+01 1.018327999999999989e+01 2.123050000000000104e+00 1.027683999999999997e+01 1.238394000000000084e+01 6.872659999999999769e+00 1.185055999999999976e+01 4.024840000000000195e+00 9.613110000000000710e+00 1.185055000000000014e+01 3.676820000000000199e+00 7.603939999999999699e+00 1.027684999999999960e+01 5.576109999999999900e+00 6.872670000000000279e+00 1.185055000000000014e+01 7.428749999999999964e+00 9.613099999999999312e+00 1.185055000000000014e+01 7.080739999999999590e+00 7.603939999999999699e+00 1.027684999999999960e+01 8.980029999999999291e+00 6.872659999999999769e+00 1.185055000000000014e+01 1.083264999999999922e+01 9.613110000000000710e+00 1.185055000000000014e+01 1.048465000000000025e+01 7.603959999999999830e+00 1.027683999999999997e+01 1.158805000000000085e+01 1.679313000000000144e+01 2.992640000000000189e+00 4.780230000000000423e+00 1.679313000000000144e+01 2.992649999999999810e+00 8.184150000000000702e+00 1.679313000000000144e+01 2.992640000000000189e+00 7.269299999999999651e-01 9.303029999999999688e+00 1.418919999999999959e+00 4.130849999999999689e+00 9.303029999999999688e+00 1.418909999999999894e+00 7.534749999999999837e+00 9.303029999999999688e+00 1.418919999999999959e+00 1.128669000000000011e+01 1.131221999999999994e+01 2.992649999999999810e+00 2.927589999999999915e+00 1.405267000000000088e+01 2.992649999999999810e+00 1.028289999999999926e+00 1.478395000000000081e+01 1.418909999999999894e+00 2.579579999999999984e+00 1.204349999999999987e+01 1.418940000000000090e+00 4.478860000000000063e+00 1.131221000000000032e+01 2.992649999999999810e+00 6.331500000000000128e+00 1.405265999999999948e+01 2.992649999999999810e+00 4.432199999999999918e+00 1.478393999999999942e+01 1.418919999999999959e+00 5.983489999999999753e+00 1.204349000000000025e+01 1.418940000000000090e+00 7.882769999999999833e+00 1.131221000000000032e+01 2.992640000000000189e+00 9.735409999999999897e+00 1.405267000000000088e+01 2.992649999999999810e+00 7.836120000000000196e+00 1.478395000000000081e+01 1.418909999999999894e+00 9.387420000000000542e+00 1.204349999999999987e+01 1.418949999999999934e+00 1.426239999999999952e+00 9.823719999999999786e+00 5.847879999999999967e+00 4.830160000000000231e+00 9.823719999999999786e+00 5.847870000000000346e+00 8.234069999999999112e+00 9.823710000000000164e+00 5.847870000000000346e+00 1.727619999999999933e+00 1.530462999999999951e+01 5.847870000000000346e+00 3.278890000000000082e+00 1.256418999999999997e+01 5.847900000000000098e+00 5.131529999999999703e+00 1.530463999999999913e+01 5.847879999999999967e+00 6.682809999999999917e+00 1.256418000000000035e+01 5.847909999999999719e+00 8.535439999999999472e+00 1.530463999999999913e+01 5.847870000000000346e+00 1.008671999999999969e+01 1.256418999999999997e+01 5.847889999999999588e+00 1.228736999999999924e+01 1.731381000000000014e+01 7.421590000000000131e+00 5.479540000000000077e+00 1.731380000000000052e+01 7.421590000000000131e+00 8.883449999999999847e+00 1.731381000000000014e+01 7.421599999999999753e+00 1.198598999999999926e+01 1.183289000000000080e+01 7.421599999999999753e+00 3.626900000000000013e+00 1.457334999999999958e+01 7.421599999999999753e+00 5.178160000000000096e+00 1.183290000000000042e+01 7.421590000000000131e+00 7.030820000000000292e+00 1.457333999999999996e+01 7.421590000000000131e+00 8.582069999999999865e+00 1.183289000000000080e+01 7.421610000000000262e+00 1.043472000000000044e+01 1.457334999999999958e+01 7.421599999999999753e+00 1.298667000000000016e+01 1.783449999999999847e+01 1.185055000000000014e+01 6.178849999999999731e+00 1.783448999999999884e+01 1.185055000000000014e+01 9.582770000000000010e+00 1.783449999999999847e+01 1.185055999999999976e+01 2.125550000000000050e+00 1.034439000000000064e+01 1.027682000000000073e+01 5.529469999999999885e+00 1.034440000000000026e+01 1.027683000000000035e+01 8.933370000000000033e+00 1.034440000000000026e+01 1.027683000000000035e+01 1.268529999999999980e+01 1.235357999999999912e+01 1.185055999999999976e+01 4.326220000000000176e+00 1.509403000000000006e+01 1.185055000000000014e+01 2.426909999999999901e+00 1.582530999999999999e+01 1.027682000000000073e+01 3.978200000000000180e+00 1.308487000000000045e+01 1.027684999999999960e+01 5.877480000000000260e+00 1.235356999999999950e+01 1.185055999999999976e+01 7.730109999999999815e+00 1.509402000000000044e+01 1.185054000000000052e+01 5.830840000000000245e+00 1.582530999999999999e+01 1.027683000000000035e+01 7.382109999999999950e+00 1.308487000000000045e+01 1.027684999999999960e+01 9.281380000000000408e+00 1.235357999999999912e+01 1.185055000000000014e+01 1.113402999999999921e+01 1.509403000000000006e+01 1.185055000000000014e+01 9.234730000000000771e+00 1.582530999999999999e+01 1.027682000000000073e+01 1.078603000000000023e+01 1.308487000000000045e+01 1.027683999999999997e+01 4.488300000000000067e-01 2.086250000000000160e+00 2.205769999999999786e+00 1.098428000000000004e+01 4.080669999999999575e+00 3.641869999999999941e+00 1.977899999999999991e+00 2.832269999999999843e+00 7.698199999999999488e-01 7.933769999999999989e+00 6.093379999999999797e+00 5.198750000000000426e+00 2.301499999999999879e+00 4.826710000000000278e+00 2.205820000000000114e+00 2.323809999999999931e+00 1.340230000000000032e+00 3.641900000000000137e+00 3.852739999999999831e+00 2.086250000000000160e+00 2.205779999999999852e+00 4.176449999999999996e+00 4.080669999999999575e+00 3.641849999999999810e+00 5.381809999999999761e+00 2.832279999999999909e+00 7.698000000000000398e-01 8.257339999999999236e+00 8.087849999999999540e+00 6.634730000000000238e+00 5.705409999999999648e+00 4.826719999999999899e+00 2.205830000000000179e+00 5.727730000000000210e+00 1.340240000000000098e+00 3.641900000000000137e+00 7.256669999999999732e+00 2.086250000000000160e+00 2.205779999999999852e+00 7.580359999999999765e+00 4.080669999999999575e+00 3.641869999999999941e+00 8.785709999999999908e+00 2.832269999999999843e+00 7.698099999999999943e-01 4.529869999999999841e+00 6.093379999999999797e+00 5.198739999999999917e+00 9.109329999999999927e+00 4.826719999999999899e+00 2.205820000000000114e+00 9.131650000000000489e+00 1.340230000000000032e+00 3.641910000000000203e+00 7.502100000000000435e-01 7.567179999999999573e+00 2.205769999999999786e+00 4.266300000000000092e-01 5.572700000000000209e+00 7.698000000000000398e-01 2.625189999999999912e+00 6.821150000000000269e+00 3.641900000000000137e+00 4.154119999999999813e+00 7.567169999999999952e+00 2.205769999999999786e+00 3.830550000000000122e+00 5.572689999999999699e+00 7.697899999999999743e-01 6.029099999999999682e+00 6.821150000000000269e+00 3.641900000000000137e+00 7.558029999999999582e+00 7.567169999999999952e+00 2.205769999999999786e+00 7.234460000000000335e+00 5.572689999999999699e+00 7.698000000000000398e-01 9.433009999999999451e+00 6.821139999999999759e+00 3.641900000000000137e+00 1.148150000000000004e+00 2.606939999999999813e+00 6.634719999999999729e+00 2.677200000000000024e+00 3.352959999999999940e+00 5.198760000000000048e+00 4.853419999999999845e+00 8.087849999999999540e+00 6.634739999999999860e+00 3.000809999999999977e+00 5.347400000000000375e+00 6.634780000000000122e+00 4.552059999999999995e+00 2.606939999999999813e+00 6.634719999999999729e+00 6.081129999999999924e+00 3.352970000000000006e+00 5.198760000000000048e+00 1.125960000000000072e+00 6.093370000000000175e+00 5.198760000000000048e+00 6.404729999999999812e+00 5.347409999999999997e+00 6.634769999999999612e+00 7.955960000000000143e+00 2.606930000000000192e+00 6.634719999999999729e+00 9.485030000000000072e+00 3.352959999999999940e+00 5.198760000000000048e+00 1.449510000000000076e+00 8.087849999999999540e+00 6.634730000000000238e+00 9.808630000000000848e+00 5.347409999999999997e+00 6.634780000000000122e+00 1.252699999999999925e-01 9.177000000000000435e-02 7.697899999999999743e-01 7.632399999999999629e+00 6.124600000000000044e-01 5.198760000000000048e+00 4.228500000000000369e+00 6.124600000000000044e-01 5.198739999999999917e+00 8.245799999999999796e-01 6.124699999999999589e-01 5.198750000000000426e+00 6.933099999999999596e+00 9.178000000000000047e-02 7.698000000000000398e-01 3.529189999999999827e+00 9.178999999999999659e-02 7.698000000000000398e-01 1.168357999999999919e+01 4.601340000000000430e+00 8.070819999999999439e+00 3.023109999999999964e+00 1.860910000000000064e+00 8.070859999999999701e+00 4.875750000000000028e+00 4.601350000000000051e+00 8.070809999999999818e+00 6.427030000000000243e+00 1.860919999999999908e+00 8.070850000000000080e+00 8.279680000000000817e+00 4.601340000000000430e+00 8.070809999999999818e+00 9.830959999999999255e+00 1.860919999999999908e+00 8.070859999999999701e+00 3.324489999999999945e+00 7.341829999999999856e+00 8.070850000000000080e+00 6.728399999999999714e+00 7.341829999999999856e+00 8.070850000000000080e+00 1.013231999999999999e+01 7.341820000000000235e+00 8.070850000000000080e+00 1.847460000000000102e+00 3.127629999999999910e+00 1.106367999999999974e+01 1.238289999999999935e+01 5.122040000000000148e+00 1.249976999999999983e+01 3.376500000000000057e+00 3.873629999999999907e+00 9.627710000000000434e+00 1.083163000000000054e+01 7.862519999999999953e+00 1.249980000000000047e+01 3.700120000000000076e+00 5.868100000000000094e+00 1.106372999999999962e+01 3.722440000000000193e+00 2.381590000000000096e+00 1.249980000000000047e+01 5.251369999999999649e+00 3.127629999999999910e+00 1.106367999999999974e+01 5.575059999999999683e+00 5.122029999999999639e+00 1.249976000000000020e+01 6.780429999999999957e+00 3.873639999999999972e+00 9.627710000000000434e+00 8.633089999999999264e+00 6.614069999999999894e+00 9.627700000000000813e+00 7.104029999999999845e+00 5.868089999999999584e+00 1.106372999999999962e+01 7.126350000000000406e+00 2.381590000000000096e+00 1.249981000000000009e+01 8.655279999999999418e+00 3.127609999999999779e+00 1.106367999999999974e+01 8.978979999999999961e+00 5.122029999999999639e+00 1.249976999999999983e+01 1.018435000000000024e+01 3.873650000000000038e+00 9.627700000000000813e+00 8.956649999999999778e+00 8.608539999999999637e+00 1.106368999999999936e+01 1.050794999999999924e+01 5.868079999999999963e+00 1.106372999999999962e+01 1.053025000000000055e+01 2.381590000000000096e+00 1.249981000000000009e+01 2.148820000000000174e+00 8.608530000000000015e+00 1.106367999999999974e+01 1.825250000000000039e+00 6.614060000000000272e+00 9.627700000000000813e+00 4.023799999999999599e+00 7.862519999999999953e+00 1.249980000000000047e+01 5.552730000000000388e+00 8.608539999999999637e+00 1.106367000000000012e+01 5.229169999999999874e+00 6.614060000000000272e+00 9.627710000000000434e+00 7.427719999999999878e+00 7.862519999999999953e+00 1.249981999999999971e+01 1.523889999999999967e+00 1.133150000000000102e+00 9.627710000000000434e+00 8.331709999999999283e+00 1.133150000000000102e+00 9.627710000000000434e+00 4.927789999999999893e+00 1.133150000000000102e+00 9.627700000000000813e+00 1.128566000000000003e+01 9.561590000000000700e+00 3.641859999999999875e+00 2.279259999999999842e+00 8.313200000000000145e+00 7.698099999999999943e-01 2.602869999999999795e+00 1.030762999999999963e+01 2.205820000000000114e+00 4.477829999999999977e+00 9.561579999999999302e+00 3.641869999999999941e+00 5.683180000000000121e+00 8.313190000000000524e+00 7.698000000000000398e-01 6.006770000000000387e+00 1.030763999999999925e+01 2.205820000000000114e+00 7.881739999999999746e+00 9.561579999999999302e+00 3.641859999999999875e+00 9.087089999999999890e+00 8.313190000000000524e+00 7.698000000000000398e-01 9.410690000000000666e+00 1.030765000000000065e+01 2.205830000000000179e+00 1.051569999999999894e+00 1.304809000000000019e+01 2.205769999999999786e+00 1.158702000000000076e+01 1.504250000000000043e+01 3.641859999999999875e+00 2.580639999999999823e+00 1.379410999999999987e+01 7.698099999999999943e-01 7.280100000000000460e-01 1.105361000000000082e+01 7.698099999999999943e-01 2.904230000000000089e+00 1.578855000000000075e+01 2.205830000000000179e+00 2.926550000000000207e+00 1.230206000000000088e+01 3.641910000000000203e+00 4.455479999999999663e+00 1.304809000000000019e+01 2.205779999999999852e+00 4.779200000000000337e+00 1.504249000000000080e+01 3.641859999999999875e+00 5.984549999999999592e+00 1.379410000000000025e+01 7.698000000000000398e-01 4.131929999999999659e+00 1.105362000000000045e+01 7.698099999999999943e-01 6.308159999999999989e+00 1.578856000000000037e+01 2.205830000000000179e+00 6.330470000000000041e+00 1.230206000000000088e+01 3.641910000000000203e+00 7.859409999999999563e+00 1.304808000000000057e+01 2.205779999999999852e+00 8.183109999999999218e+00 1.504249000000000080e+01 3.641869999999999941e+00 9.388469999999999871e+00 1.379410999999999987e+01 7.698199999999999488e-01 7.535829999999999806e+00 1.105361000000000082e+01 7.697899999999999743e-01 9.712080000000000268e+00 1.578856000000000037e+01 2.205830000000000179e+00 9.734389999999999432e+00 1.230207000000000050e+01 3.641910000000000203e+00 2.978580000000000005e+00 8.833869999999999223e+00 5.198750000000000426e+00 3.302169999999999828e+00 1.082831999999999972e+01 6.634789999999999743e+00 6.382500000000000284e+00 8.833880000000000621e+00 5.198760000000000048e+00 6.706100000000000172e+00 1.082831999999999972e+01 6.634780000000000122e+00 9.786390000000000811e+00 8.833880000000000621e+00 5.198769999999999669e+00 1.011001000000000083e+01 1.082831999999999972e+01 6.634789999999999743e+00 1.750890000000000057e+00 1.356878000000000029e+01 6.634730000000000238e+00 3.279939999999999856e+00 1.431478000000000073e+01 5.198769999999999669e+00 1.427310000000000079e+00 1.157429999999999914e+01 5.198750000000000426e+00 3.603549999999999809e+00 1.630922999999999945e+01 6.634780000000000122e+00 5.154799999999999827e+00 1.356878000000000029e+01 6.634730000000000238e+00 6.683860000000000134e+00 1.431479999999999997e+01 5.198760000000000048e+00 4.831229999999999691e+00 1.157428999999999952e+01 5.198739999999999917e+00 7.007469999999999644e+00 1.630922999999999945e+01 6.634780000000000122e+00 8.558709999999999596e+00 1.356878000000000029e+01 6.634719999999999729e+00 1.008777000000000079e+01 1.431479999999999997e+01 5.198750000000000426e+00 8.235150000000000858e+00 1.157428999999999952e+01 5.198750000000000426e+00 1.041136999999999979e+01 1.630923999999999907e+01 6.634780000000000122e+00 1.198495999999999917e+01 1.008225999999999978e+01 8.070809999999999818e+00 5.177120000000000388e+00 1.008225999999999978e+01 8.070819999999999439e+00 8.581049999999999400e+00 1.008226999999999940e+01 8.070830000000000837e+00 1.228632999999999953e+01 1.556316999999999950e+01 8.070809999999999818e+00 3.625859999999999861e+00 1.282274999999999920e+01 8.070850000000000080e+00 5.478500000000000369e+00 1.556317999999999913e+01 8.070809999999999818e+00 7.029779999999999696e+00 1.282273999999999958e+01 8.070859999999999701e+00 8.882410000000000139e+00 1.556317999999999913e+01 8.070819999999999439e+00 1.043369999999999997e+01 1.282274999999999920e+01 8.070859999999999701e+00 1.268426999999999971e+01 1.060294000000000025e+01 1.249976000000000020e+01 3.677890000000000104e+00 9.354559999999999320e+00 9.627710000000000434e+00 4.001479999999999926e+00 1.134900000000000020e+01 1.106372999999999962e+01 5.876450000000000173e+00 1.060294999999999987e+01 1.249976999999999983e+01 7.081809999999999938e+00 9.354570000000000718e+00 9.627710000000000434e+00 7.405389999999999695e+00 1.134900000000000020e+01 1.106373999999999924e+01 9.280350000000000321e+00 1.060294999999999987e+01 1.249976999999999983e+01 1.048569999999999958e+01 9.354559999999999320e+00 9.627720000000000056e+00 1.080930999999999997e+01 1.134899000000000058e+01 1.106373999999999924e+01 2.450190000000000090e+00 1.408946000000000076e+01 1.106368999999999936e+01 1.298563000000000045e+01 1.608386000000000138e+01 1.249976999999999983e+01 3.979260000000000019e+00 1.483547000000000082e+01 9.627700000000000813e+00 2.126619999999999955e+00 1.209497999999999962e+01 9.627710000000000434e+00 4.302870000000000417e+00 1.682991000000000170e+01 1.106373999999999924e+01 4.325179999999999580e+00 1.334342000000000006e+01 1.249981000000000009e+01 5.854110000000000369e+00 1.408946000000000076e+01 1.106367000000000012e+01 6.177810000000000024e+00 1.608387000000000100e+01 1.249976000000000020e+01 7.383169999999999789e+00 1.483547000000000082e+01 9.627710000000000434e+00 5.530540000000000234e+00 1.209497000000000000e+01 9.627700000000000813e+00 7.706780000000000186e+00 1.682991000000000170e+01 1.106372000000000000e+01 7.729079999999999728e+00 1.334342999999999968e+01 1.249981000000000009e+01 9.258020000000000138e+00 1.408946000000000076e+01 1.106367000000000012e+01 9.581730000000000302e+00 1.608386000000000138e+01 1.249977999999999945e+01 1.078708999999999918e+01 1.483547000000000082e+01 9.627710000000000434e+00 8.934459999999999624e+00 1.209497000000000000e+01 9.627700000000000813e+00 1.111068999999999996e+01 1.682992000000000132e+01 1.106373999999999924e+01 1.113301000000000052e+01 1.334343999999999930e+01 1.249981000000000009e+01