-2.353681589660000100e+03
-2.353706477340000220e+03
-2.353778494329999830e+03
-2.353899605380000139e+03
-2.354072266520000085e+03
-2.354299937589999900e+03
-2.354586743039999874e+03
-2.354937185729999783e+03
-2.355356008660000043e+03
-2.355847786979999910e+03
