-3.437279999999999780e-01 -6.157699999999999979e-02 2.771978999999999971e+00 3.428430000000000089e-01 6.115500000000000103e-02 -2.771434999999999871e+00 3.437819999999999765e-01 6.121000000000000052e-02 -2.771062999999999832e+00 -3.431580000000000186e-01 -6.196700000000000125e-02 2.772034000000000109e+00 3.431699999999999751e-01 6.053700000000000053e-02 -2.771504999999999885e+00 3.435110000000000108e-01 6.221899999999999653e-02 -2.770926999999999918e+00 -3.433450000000000113e-01 -6.177900000000000058e-02 2.771865000000000023e+00 3.432520000000000016e-01 6.051000000000000129e-02 -2.771263999999999950e+00 3.436839999999999895e-01 6.185100000000000320e-02 -2.770659000000000205e+00 -3.447450000000000236e-01 -6.073900000000000132e-02 2.772612000000000076e+00 -3.438979999999999815e-01 -6.132100000000000051e-02 2.772184000000000204e+00 3.435650000000000093e-01 6.092800000000000299e-02 -2.771554000000000073e+00 -3.449389999999999956e-01 -6.081299999999999900e-02 2.773012000000000032e+00 -3.441080000000000250e-01 -6.135100000000000275e-02 2.772107000000000099e+00 3.439619999999999900e-01 6.112399999999999778e-02 -2.771557000000000048e+00 -3.445119999999999849e-01 -6.158399999999999985e-02 2.773050000000000015e+00 -3.438829999999999942e-01 -6.161500000000000310e-02 2.772094000000000058e+00 3.439479999999999760e-01 6.125200000000000089e-02 -2.771596000000000171e+00 3.428209999999999869e-01 6.176700000000000246e-02 -2.771402000000000143e+00 3.439289999999999847e-01 6.117500000000000021e-02 -2.771190999999999960e+00 3.430949999999999833e-01 6.157100000000000073e-02 -2.771583000000000130e+00 3.434209999999999763e-01 6.214200000000000279e-02 -2.771221999999999852e+00 3.433970000000000078e-01 6.132800000000000057e-02 -2.771360000000000046e+00 3.438180000000000125e-01 6.189800000000000163e-02 -2.771322000000000063e+00 3.442370000000000152e-01 6.087700000000000056e-02 -2.771431999999999896e+00 3.441779999999999839e-01 6.086199999999999943e-02 -2.771227000000000107e+00 3.444380000000000219e-01 6.062900000000000234e-02 -2.771637999999999824e+00 -3.436850000000000183e-01 -6.159499999999999698e-02 2.772003999999999913e+00 -3.435509999999999953e-01 -6.138099999999999806e-02 2.772327999999999903e+00 -3.434050000000000158e-01 -6.162600000000000022e-02 2.772047000000000150e+00 -3.450500000000000234e-01 -6.103299999999999698e-02 2.772905999999999871e+00 -3.443140000000000089e-01 -6.169999999999999790e-02 2.772235999999999922e+00 -3.446679999999999744e-01 -6.110399999999999859e-02 2.772911000000000126e+00 -3.440309999999999757e-01 -6.170899999999999996e-02 2.772403000000000173e+00 -3.448539999999999939e-01 -6.123399999999999677e-02 2.772926000000000002e+00 -3.440639999999999810e-01 -6.198900000000000243e-02 2.772514999999999841e+00 -3.429510000000000058e-01 -6.223000000000000059e-02 2.772088999999999803e+00 3.432020000000000071e-01 6.171800000000000203e-02 -2.771526999999999852e+00 3.441069999999999962e-01 6.168099999999999972e-02 -2.770592000000000166e+00 -3.436210000000000098e-01 -6.243400000000000338e-02 2.771921999999999997e+00 3.434220000000000050e-01 6.066599999999999770e-02 -2.771259999999999835e+00 3.435529999999999973e-01 6.227599999999999802e-02 -2.770785000000000053e+00 -3.436449999999999783e-01 -6.237800000000000289e-02 2.772521999999999931e+00 3.430449999999999888e-01 6.107200000000000129e-02 -2.771523999999999877e+00 3.435909999999999798e-01 6.167000000000000259e-02 -2.770881999999999845e+00 -3.449599999999999889e-01 -6.080399999999999694e-02 2.772899999999999920e+00 -3.441029999999999922e-01 -6.125599999999999795e-02 2.772174999999999834e+00 3.439809999999999812e-01 6.144199999999999662e-02 -2.771653999999999840e+00 -3.449280000000000124e-01 -6.094399999999999817e-02 2.772838000000000136e+00 -3.441910000000000247e-01 -6.101499999999999979e-02 2.772218000000000071e+00 3.442950000000000177e-01 6.147400000000000087e-02 -2.771796000000000149e+00 -3.449019999999999864e-01 -6.086300000000000043e-02 2.772850000000000037e+00 -3.438220000000000165e-01 -6.160899999999999710e-02 2.772132000000000041e+00 3.441560000000000175e-01 6.037499999999999811e-02 -2.771224000000000132e+00 -3.441400000000000015e-01 -6.139599999999999919e-02 2.772438999999999876e+00 -3.438939999999999775e-01 -6.186300000000000132e-02 2.772321999999999953e+00 -3.441520000000000135e-01 -6.170199999999999990e-02 2.772711999999999843e+00 3.428919999999999746e-01 6.217999999999999916e-02 -2.770502000000000020e+00 3.429749999999999743e-01 6.196299999999999725e-02 -2.770420000000000105e+00 3.434249999999999803e-01 6.194000000000000200e-02 -2.770795999999999815e+00 -3.432040000000000091e-01 -6.185600000000000126e-02 2.772175999999999974e+00 -3.448010000000000241e-01 -6.169600000000000084e-02 2.772794999999999899e+00 3.440320000000000045e-01 6.109799999999999953e-02 -2.770738999999999841e+00 3.435000000000000275e-01 6.131799999999999751e-02 -2.771516000000000091e+00 -3.441230000000000122e-01 -6.140000000000000319e-02 2.772238000000000202e+00 -3.448049999999999726e-01 -6.097600000000000242e-02 2.772508999999999890e+00 3.436429999999999763e-01 6.130700000000000038e-02 -2.771049000000000095e+00 3.433289999999999953e-01 6.146000000000000074e-02 -2.771647999999999890e+00 -3.434960000000000235e-01 -6.179799999999999877e-02 2.772384999999999877e+00 -3.443609999999999727e-01 -6.114499999999999796e-02 2.772807999999999939e+00 3.434820000000000095e-01 6.115000000000000296e-02 -2.770729000000000219e+00 3.435949999999999838e-01 6.090000000000000274e-02 -2.771790999999999894e+00 3.435380000000000100e-01 6.157200000000000173e-02 -2.770655999999999786e+00 3.431069999999999953e-01 6.172899999999999915e-02 -2.770253999999999994e+00 3.430929999999999813e-01 6.194899999999999712e-02 -2.770246000000000208e+00 3.432990000000000208e-01 6.145599999999999674e-02 -2.771202999999999861e+00 3.437149999999999928e-01 6.032699999999999868e-02 -2.772028999999999854e+00 3.432799999999999740e-01 6.113400000000000084e-02 -2.771525000000000016e+00 3.431350000000000233e-01 6.152799999999999936e-02 -2.772081000000000017e+00 3.436080000000000245e-01 6.078599999999999975e-02 -2.771170000000000133e+00 3.433990000000000098e-01 6.107200000000000129e-02 -2.771757000000000026e+00 -3.442439999999999944e-01 -6.171499999999999903e-02 2.772569999999999979e+00 -3.443760000000000154e-01 -6.111199999999999966e-02 2.772707000000000033e+00 -3.440369999999999817e-01 -6.175499999999999740e-02 2.772873999999999839e+00 -3.436279999999999890e-01 -6.135199999999999682e-02 2.772292000000000201e+00 -3.447790000000000021e-01 -6.117399999999999921e-02 2.772774000000000072e+00 -3.435920000000000085e-01 -6.223000000000000059e-02 2.772264999999999979e+00 -3.450079999999999814e-01 -6.132499999999999757e-02 2.773179999999999978e+00 -3.433329999999999993e-01 -6.146000000000000074e-02 2.772197999999999940e+00 -3.445889999999999787e-01 -6.116200000000000109e-02 2.772870999999999864e+00 -3.438470000000000137e-01 -6.112800000000000178e-02 2.772575999999999929e+00 -3.440179999999999905e-01 -6.074700000000000238e-02 2.772238999999999898e+00 -3.447279999999999789e-01 -6.133500000000000063e-02 2.772441000000000155e+00 3.428399999999999781e-01 6.212399999999999867e-02 -2.770411999999999875e+00 3.431560000000000166e-01 6.170899999999999996e-02 -2.770509000000000110e+00 3.432310000000000083e-01 6.210999999999999854e-02 -2.770432000000000006e+00 -3.433959999999999790e-01 -6.223800000000000165e-02 2.772262000000000004e+00 -3.449050000000000171e-01 -6.117800000000000321e-02 2.773191000000000184e+00 3.438300000000000245e-01 6.104699999999999710e-02 -2.771523999999999877e+00 3.432359999999999856e-01 6.109900000000000053e-02 -2.772057000000000215e+00 -3.437910000000000132e-01 -6.155200000000000254e-02 2.772336000000000134e+00 -3.449590000000000156e-01 -6.076199999999999657e-02 2.772939000000000043e+00 3.438129999999999797e-01 6.165299999999999947e-02 -2.771405000000000118e+00 3.437729999999999952e-01 6.046800000000000092e-02 -2.771999999999999797e+00 -3.433149999999999813e-01 -6.202499999999999680e-02 2.772209999999999841e+00 -3.449180000000000024e-01 -6.145699999999999774e-02 2.772873999999999839e+00 3.438399999999999790e-01 6.126899999999999707e-02 -2.771382000000000012e+00 3.433749999999999858e-01 6.044800000000000173e-02 -2.771542999999999868e+00 3.860000000000000041e-04 -7.749999999999999728e-04 -7.600000000000000418e-05 -2.405819000000000152e+00 -2.383093999999999824e+00 3.329197999999999880e+00 2.405048999999999992e+00 2.384272000000000169e+00 -3.331669000000000214e+00 2.403712000000000071e+00 2.384367000000000125e+00 -3.330728999999999829e+00 1.183999999999999940e-03 -4.479999999999999933e-04 -2.550000000000000183e-04 -2.405342999999999787e+00 -2.383672999999999931e+00 3.329035999999999884e+00 1.897999999999999948e-03 -3.609999999999999928e-04 -4.730000000000000046e-04 -2.405286999999999953e+00 -2.382883999999999780e+00 3.329801999999999929e+00 2.404796000000000156e+00 2.383861000000000008e+00 -3.330852999999999842e+00 2.120000000000000031e-04 -6.269999999999999532e-04 7.489999999999999913e-04 9.009999999999999997e-04 -3.390000000000000001e-04 -1.659999999999999963e-04 -2.404892999999999947e+00 -2.383888999999999925e+00 3.328705999999999943e+00 4.369999999999999970e-04 -7.470000000000000511e-04 -1.250000000000000026e-04 -2.405969999999999942e+00 -2.382579999999999920e+00 3.328959999999999919e+00 2.404830000000000023e+00 2.384164000000000172e+00 -3.331719999999999793e+00 2.404498999999999942e+00 2.384097999999999828e+00 -3.330395000000000216e+00 5.000000000000000104e-04 -1.103000000000000031e-03 -9.999999999999999547e-07 -2.405788999999999955e+00 -2.383874000000000049e+00 3.328641000000000183e+00 1.115000000000000106e-03 -1.484000000000000076e-03 6.070000000000000092e-04 2.404938000000000020e+00 2.384145999999999876e+00 -3.330779000000000156e+00 -2.405260000000000176e+00 -2.383382999999999807e+00 3.328917000000000126e+00 1.783999999999999996e-03 -6.390000000000000280e-04 4.099999999999999912e-04 2.405037999999999787e+00 2.384462000000000081e+00 -3.330630999999999897e+00 -2.406105000000000160e+00 -2.382791000000000103e+00 3.328958000000000084e+00 5.079999999999999880e-04 -4.380000000000000213e-04 4.550000000000000008e-04 2.404103000000000101e+00 2.384539000000000186e+00 -3.330728000000000133e+00 -2.406000000000000139e+00 -2.382760000000000211e+00 3.328688000000000091e+00 8.829999999999999958e-04 -1.002999999999999985e-03 9.779999999999999197e-04 2.405758000000000063e+00 2.384472000000000147e+00 -3.331528000000000045e+00 2.066999999999999827e-03 -9.829999999999999329e-04 -3.800000000000000209e-05 1.613000000000000067e-03 -1.059000000000000045e-03 2.300000000000000002e-05 5.810000000000000277e-04 -6.909999999999999910e-04 3.080000000000000055e-04 2.404179000000000066e+00 2.384023000000000003e+00 -3.331682999999999950e+00 2.404382000000000019e+00 2.384316999999999798e+00 -3.330572999999999784e+00 4.029999999999999837e-04 -4.440000000000000045e-04 1.640000000000000019e-04 8.800000000000000313e-04 -5.540000000000000219e-04 4.499999999999999877e-04 2.404558000000000195e+00 2.384158000000000222e+00 -3.331516999999999840e+00 1.567000000000000033e-03 -1.378000000000000102e-03 3.860000000000000041e-04 1.389000000000000044e-03 -1.074000000000000085e-03 1.129999999999999955e-04 2.404736000000000207e+00 2.384488999999999859e+00 -3.330671000000000159e+00 2.404345000000000176e+00 2.384088000000000207e+00 -3.331593999999999944e+00 2.404491999999999852e+00 2.384367000000000125e+00 -3.330732999999999944e+00 2.404287000000000063e+00 2.384349999999999969e+00 -3.330658999999999814e+00 2.404692999999999969e+00 2.383980999999999906e+00 -3.330566000000000138e+00 2.404463999999999935e+00 2.383987999999999996e+00 -3.330502000000000073e+00 -2.405222999999999889e+00 -2.382673000000000041e+00 3.329261999999999944e+00 -2.405040000000000067e+00 -2.383331999999999784e+00 3.329026999999999958e+00 -2.405202000000000062e+00 -2.382643999999999984e+00 3.329658999999999924e+00 -2.405206000000000177e+00 -2.383509999999999796e+00 3.329747999999999930e+00 -2.405968000000000107e+00 -2.382795000000000218e+00 3.330312999999999857e+00 -2.405298999999999854e+00 -2.383515000000000050e+00 3.329296999999999951e+00 -2.405275000000000052e+00 -2.383593999999999991e+00 3.328950999999999993e+00 -2.406108999999999831e+00 -2.383287999999999851e+00 3.328949999999999854e+00 -2.405940000000000190e+00 -2.383347000000000104e+00 3.329098999999999808e+00 4.090000000000000211e-04 -1.487999999999999956e-03 1.255000000000000039e-03 -2.406070999999999849e+00 -2.383300999999999892e+00 3.329817999999999945e+00 2.405437000000000047e+00 2.384510999999999825e+00 -3.330848000000000031e+00 -2.406420999999999921e+00 -2.383750000000000036e+00 3.329731999999999914e+00 1.229000000000000058e-03 -1.711999999999999980e-03 1.010000000000000020e-04 -2.405365000000000197e+00 -2.383427999999999880e+00 3.328987999999999836e+00 9.479999999999999495e-04 -8.189999999999999581e-04 7.669999999999999951e-04 -2.405435999999999908e+00 -2.383070000000000022e+00 3.329342000000000024e+00 2.404926000000000119e+00 2.384485000000000188e+00 -3.330728999999999829e+00 2.403852000000000100e+00 2.383398999999999823e+00 -3.329816000000000109e+00 1.157999999999999958e-03 -1.280000000000000105e-03 2.500000000000000052e-04 -2.404767000000000099e+00 -2.383541999999999828e+00 3.328284000000000020e+00 7.069999999999999462e-04 -7.940000000000000009e-04 6.139999999999999625e-04 -2.405578000000000216e+00 -2.383040999999999965e+00 3.329385999999999957e+00 2.404430000000000067e+00 2.384110999999999869e+00 -3.330484999999999918e+00 6.250000000000000130e-04 -1.294999999999999927e-03 1.320999999999999909e-03 7.919999999999999523e-04 -8.249999999999999955e-04 1.250000000000000026e-04 -2.405196000000000112e+00 -2.383268000000000164e+00 3.328574999999999839e+00 1.069000000000000072e-03 -1.428000000000000016e-03 1.134000000000000025e-03 2.404574999999999907e+00 2.383598000000000106e+00 -3.330137000000000125e+00 -2.405781999999999865e+00 -2.383760999999999797e+00 3.329657999999999785e+00 1.797999999999999902e-03 -1.255999999999999955e-03 1.069000000000000072e-03 2.404551999999999801e+00 2.383894000000000180e+00 -3.330868000000000162e+00 -2.405927999999999845e+00 -2.383776999999999813e+00 3.329517000000000060e+00 2.404220000000000024e+00 2.384488999999999859e+00 -3.329988999999999866e+00 2.404707999999999846e+00 2.384376000000000051e+00 -3.329822000000000060e+00 2.404815999999999843e+00 2.384539999999999882e+00 -3.330099000000000142e+00 -2.405797000000000185e+00 -2.383605000000000196e+00 3.329457999999999807e+00 2.405812000000000062e+00 2.383726999999999929e+00 -3.330648000000000053e+00 2.076000000000000154e-03 -3.330000000000000169e-04 -3.770000000000000022e-04 -2.404618999999999840e+00 -2.383987999999999996e+00 3.328993000000000091e+00 2.405181999999999931e+00 2.384466000000000196e+00 -3.330194999999999794e+00 2.289999999999999935e-03 -8.739999999999999939e-04 -4.209999999999999875e-04 -2.406055999999999973e+00 -2.383354999999999890e+00 3.328926000000000052e+00 2.404186999999999852e+00 2.384640999999999789e+00 -3.330150000000000166e+00 6.019999999999999961e-04 -3.809999999999999910e-04 -4.350000000000000026e-04 3.499999999999999964e-04 -1.469000000000000037e-03 4.939999999999999730e-04 -2.406763000000000208e+00 -2.383509000000000100e+00 3.329604999999999926e+00 2.404835999999999974e+00 2.383614000000000122e+00 -3.331030999999999853e+00 2.404166000000000025e+00 2.384885000000000144e+00 -3.330198000000000214e+00 1.856000000000000011e-03 -1.190000000000000058e-04 -7.579999999999999932e-04 -2.405584999999999862e+00 -2.382959000000000049e+00 3.328710000000000058e+00 1.949999999999999910e-03 -2.033999999999999784e-03 2.579999999999999828e-04 -2.405596000000000068e+00 -2.383418999999999954e+00 3.329835999999999796e+00 2.405574000000000101e+00 2.383631999999999973e+00 -3.331005000000000216e+00 2.404876999999999931e+00 2.384282999999999930e+00 -3.330051000000000094e+00 2.511999999999999910e-03 -9.479999999999999495e-04 -4.600000000000000004e-05 -2.405383000000000049e+00 -2.382937000000000083e+00 3.328885000000000094e+00 5.770000000000000389e-04 -1.469000000000000037e-03 -1.520000000000000084e-04 -2.406236999999999959e+00 -2.383007999999999793e+00 3.329247000000000067e+00 2.404065999999999814e+00 2.383875999999999884e+00 -3.331436000000000064e+00 2.404609999999999914e+00 2.384992000000000001e+00 -3.330267999999999784e+00 5.119999999999999768e-04 -7.269999999999999987e-04 -4.500000000000000283e-05 -2.407108000000000025e+00 -2.382763999999999882e+00 3.328641999999999879e+00 2.405294000000000043e+00 2.384093000000000018e+00 -3.330982000000000109e+00 2.553999999999999847e-03 -6.220000000000000485e-04 -1.400999999999999902e-03 2.404554000000000080e+00 2.384041999999999994e+00 -3.330942999999999987e+00 1.314000000000000064e-03 -4.110000000000000155e-04 -7.389999999999999651e-04 2.404811000000000032e+00 2.384125000000000050e+00 -3.331545000000000201e+00 1.420000000000000092e-04 1.840000000000000001e-04 -4.440000000000000045e-04 -2.930000000000000204e-04 -1.252999999999999991e-03 7.960000000000000495e-04 2.405781000000000169e+00 2.384329999999999838e+00 -3.332491999999999788e+00 2.404487000000000041e+00 2.384603999999999946e+00 -3.331812999999999914e+00 1.897999999999999948e-03 3.809999999999999910e-04 -6.700000000000000226e-05 1.791000000000000057e-03 -1.655000000000000004e-03 -1.150000000000000035e-04 2.405171999999999866e+00 2.383055000000000145e+00 -3.332110000000000127e+00 2.405149999999999899e+00 2.384453000000000156e+00 -3.331112000000000073e+00 1.593000000000000015e-03 -3.860000000000000041e-04 -1.720000000000000066e-04 3.429999999999999889e-04 -2.037000000000000182e-03 1.620000000000000075e-04 2.404243000000000130e+00 2.383777999999999953e+00 -3.331824999999999815e+00 2.403980999999999923e+00 2.384716000000000058e+00 -3.331547000000000036e+00 1.477000000000000014e-03 -7.249999999999999500e-04 3.490000000000000263e-04 -2.405495999999999857e+00 -2.384364999999999846e+00 3.330201999999999884e+00 -2.404339999999999922e+00 -2.383776999999999813e+00 3.329066000000000081e+00 -2.406029000000000195e+00 -2.384135999999999811e+00 3.329505000000000159e+00 -2.406286999999999843e+00 -2.382801000000000169e+00 3.330515000000000114e+00 -2.405628999999999795e+00 -2.382941999999999894e+00 3.329851999999999812e+00 -2.405390999999999835e+00 -2.383169000000000093e+00 3.330210000000000115e+00 -2.405514999999999848e+00 -2.382749000000000006e+00 3.329117999999999800e+00 -2.405645999999999951e+00 -2.383207000000000075e+00 3.330116999999999994e+00 -2.406772999999999829e+00 -2.382641000000000009e+00 3.329431000000000029e+00 -2.405682999999999794e+00 -2.383544000000000107e+00 3.330020000000000202e+00 2.405387000000000164e+00 2.383487000000000133e+00 -3.330804000000000098e+00 1.562999999999999936e-03 -2.910000000000000260e-04 3.009999999999999980e-04 -2.404949999999999921e+00 -2.384123999999999910e+00 3.330131999999999870e+00 2.404824000000000073e+00 2.383452000000000126e+00 -3.330598999999999865e+00 2.099999999999999870e-03 -4.600000000000000004e-05 3.000000000000000076e-06 -2.405895000000000117e+00 -2.383417999999999815e+00 3.330423999999999829e+00 2.404748999999999803e+00 2.384167999999999843e+00 -3.330798999999999843e+00 7.150000000000000322e-04 7.069999999999999462e-04 4.049999999999999781e-04 5.349999999999999938e-04 -1.131999999999999977e-03 9.950000000000000077e-04 -2.405949999999999811e+00 -2.383144000000000151e+00 3.330051999999999790e+00 2.404354000000000102e+00 2.384196999999999900e+00 -3.330538999999999916e+00 2.404481000000000090e+00 2.384811000000000014e+00 -3.330337999999999798e+00 1.000000000000000021e-03 1.520000000000000084e-04 5.879999999999999810e-04 -2.405797000000000185e+00 -2.382372000000000156e+00 3.329813999999999830e+00 1.394000000000000057e-03 -1.546999999999999981e-03 1.162000000000000055e-03 -2.405047999999999853e+00 -2.383626000000000023e+00 3.330160999999999927e+00 2.405003999999999920e+00 2.383846000000000132e+00 -3.330855999999999817e+00 2.404891999999999808e+00 2.384692999999999952e+00 -3.330438000000000009e+00 1.866000000000000037e-03 -4.409999999999999858e-04 9.979999999999999722e-04 -2.405129000000000072e+00 -2.382641000000000009e+00 3.329724000000000128e+00 9.749999999999999552e-04 -1.484999999999999992e-03 1.549999999999999946e-03 -2.405745000000000022e+00 -2.383233999999999853e+00 3.330111000000000043e+00 2.404447999999999919e+00 2.384618999999999822e+00 -3.330547999999999842e+00 2.403862999999999861e+00 2.384913000000000061e+00 -3.329744999999999955e+00 1.085999999999999943e-03 -8.799999999999999771e-05 6.130000000000000466e-04 -2.407033000000000200e+00 -2.382445999999999842e+00 3.329832999999999821e+00