1.792641105014816731e+03 -9.537684834904645470e+01 -6.120495337087714915e+02 -9.537684834904645470e+01 2.094012200006409785e+03 -4.336798725785691317e+02 -6.120495337087714915e+02 -4.336798725785691317e+02 1.542091444517169748e+03
1.792890218021527744e+03 -9.495167134810085940e+01 -6.118454253548101178e+02 -9.495167134810085940e+01 2.093396310219554834e+03 -4.334644573625925545e+02 -6.118454253548101178e+02 -4.334644573625925545e+02 1.542180242373167403e+03
1.792665041586003781e+03 -9.446931950056188043e+01 -6.114348971455391393e+02 -9.446931950056188043e+01 2.092370672007016310e+03 -4.331403458844367265e+02 -6.114348971455391393e+02 -4.331403458844367265e+02 1.542135920031056685e+03
1.792691178260883362e+03 -9.387051532909192986e+01 -6.107471140968817735e+02 -9.387051532909192986e+01 2.091440794003933206e+03 -4.326213720577110280e+02 -6.107471140968817735e+02 -4.326213720577110280e+02 1.543003512820108654e+03
1.792272573721601702e+03 -9.322460387412822058e+01 -6.099105177054226488e+02 -9.322460387412822058e+01 2.090115649270358062e+03 -4.320193234295298907e+02 -6.099105177054226488e+02 -4.320193234295298907e+02 1.543639342787265832e+03
1.791752318821839708e+03 -9.246022101273085525e+01 -6.088437041345363241e+02 -9.246022101273085525e+01 2.088533913962457973e+03 -4.312585609919304943e+02 -6.088437041345363241e+02 -4.312585609919304943e+02 1.544732655075411685e+03
1.791122462553949390e+03 -9.165285258108659150e+01 -6.075597904581367175e+02 -9.165285258108659150e+01 2.086829975426671353e+03 -4.303520486470506512e+02 -6.075597904581367175e+02 -4.303520486470506512e+02 1.546036801350959195e+03
1.790046834643585498e+03 -9.068724378005913422e+01 -6.060746647668138394e+02 -9.068724378005913422e+01 2.084423605050552851e+03 -4.292870313633563342e+02 -6.060746647668138394e+02 -4.292870313633563342e+02 1.547376984768002785e+03
1.789207244440139903e+03 -8.969545653003130781e+01 -6.043392285439852003e+02 -8.969545653003130781e+01 2.082185069166881931e+03 -4.280418840710082691e+02 -6.043392285439852003e+02 -4.280418840710082691e+02 1.549324591750096488e+03
1.787778263167098658e+03 -8.852469502202374940e+01 -6.024047386358053018e+02 -8.852469502202374940e+01 2.079025107577224844e+03 -4.266232210057912653e+02 -6.024047386358053018e+02 -4.266232210057912653e+02 1.551142253367258718e+03
