-3.782012834486018441e-03 1.698819997164510986e-01 2.487999851184960042e-03 -3.805000003358944855e-03 1.499971182432224548e-05 -4.029999790119330135e-04 -3.796000171725162197e-03 2.108999710696022722e-03 -2.213999981153258814e-03 4.299999965355892108e-04 1.800003214043863659e-05 -3.810000023915176390e-04 -6.499998672993787538e-04 -1.673000048042918393e-03 1.118000005259026574e-03 -3.366800090819011687e-02 1.388399747935158135e-02 2.570000017197409531e-02 -3.102999895626783189e-02 -1.557800237113449691e-02 -2.435499981315839002e-02 -2.117999952741628396e-03 -6.850001610079582215e-04 -8.239999876247156886e-04 -7.450000080702735101e-04 9.699994352260715529e-05 -1.329999959845986875e-04 -1.320000119757213687e-03 1.618999900654508311e-03 4.870000056690282548e-04 -2.000000608955385738e-05 7.299999838451031527e-05 -1.029999999625208756e-04 -1.303999921553294309e-03 -1.093000099384994813e-03 -7.639999917103364787e-04 1.778000236454123058e-03 -3.091999865057923087e-03 4.719999932742229812e-04 1.529999540605498449e-04 5.910000113466804851e-04 -2.250000014348738878e-04 -1.999994153072559153e-06 -1.030000005028648767e-04 -3.519999998860759839e-04 -1.613999816339741541e-03 -2.383000121445927669e-03 6.220000112893694444e-04 -6.144996533614738993e-03 -4.294100042516331428e-02 3.962900007681226244e-02 1.072460002550642971e-01 -1.987991870008688940e-03 1.896999941000334505e-02 -5.754000066969505028e-03 2.530999587344168449e-03 2.254600002923309171e-02 2.365000211001162204e-03 -1.306999800839256333e-03 2.031799998825107104e-02 -3.459998054543429714e-04 -1.073000005648137942e-03 2.054300000298166229e-02 -2.581000097603146880e-03 2.675999823759976984e-03 1.898300001157375225e-02 -1.906999529891457903e-03 -4.637000122618184332e-03 2.163300001515815543e-02 -1.059999810998829561e-03 -1.031000060076660242e-03 2.011400000688088816e-02 2.771000168719068690e-03 -7.709997704490182454e-04 2.000199998547461458e-02 5.730001483730526096e-04 -5.229999369720018422e-04 1.971399999735953465e-02 2.700017291408410874e-05 -8.279999779994214092e-04 1.998100000067803278e-02 5.510005084234167062e-04 -5.228999937887695258e-03 2.046300000218168394e-02 1.415500099307961425e-02 -1.262799892257340274e-02 6.887999934480257616e-03 -1.321999829872862187e-03 -6.300000778191194471e-04 2.218900000792654176e-02 -1.626999979948173022e-03 1.224999897343636733e-03 2.041700000775718143e-02 -1.709899886082850637e-02 -1.443500128461538794e-02 8.596000108802790904e-03 -2.417099858417646324e-02 -2.008500184673589831e-02 -1.869799984651713751e-02 -9.173000709342505471e-03 6.999999273683236468e-03 -3.259699995635850084e-02 2.229999906792703730e-03 -2.539998516876515347e-04 -2.036600001205556010e-02 1.715400079193146396e-02 -1.273799873366363890e-02 -3.106000008196391216e-02 1.985000406948944814e-03 -7.012999872212800911e-03 -2.236400000395179222e-02 2.586999943844938386e-03 -7.479998247435852262e-04 -2.042200001353270539e-02 2.063999793665656588e-03 1.399000137909301887e-03 -1.821200001279041011e-02 -1.127000050673258088e-03 -8.180001056004001028e-04 -2.038799999296204285e-02 6.919997215905197580e-04 2.225000032406540106e-03 -1.995200000604224061e-02 -5.600006846729766038e-05 -5.220000237693293898e-04 -1.955599999916947385e-02 -7.959999911973937277e-04 -1.619000080766557935e-03 -2.058799999398901182e-02 1.398000217446378549e-03 -4.349999914454190549e-03 -2.020800000337164698e-02 6.509999904782475758e-04 -1.339999970827140821e-03 -2.008500000225493104e-02 3.599997511080710782e-05 -1.186000018012992778e-03 -2.075899999901404530e-02 -1.844000009049756323e-03 -1.345000159507652804e-03 -2.006799998847789632e-02 3.800309498251386038e-05 -4.068599999388856914e-02 3.241000040430533878e-03
-3.782012827911706166e-03 1.697949997164500957e-01 2.486999851271862183e-03 -3.803000003288834439e-03 1.399971197458388565e-05 -4.039999790219738884e-04 -3.793000171341491273e-03 2.103999710923911814e-03 -2.212999981164824517e-03 4.309999966056996023e-04 1.700003221507001780e-05 -3.820000023960386237e-04 -6.509998673750090354e-04 -1.672000048118548734e-03 1.118000005263547481e-03 -3.364800090749452827e-02 1.387399748085320003e-02 2.568900017187368545e-02 -3.101299895699101764e-02 -1.556800236984278926e-02 -2.434899981326221069e-02 -2.114999952811738582e-03 -6.840001607800686584e-04 -8.229999876422741016e-04 -7.450000079946432529e-04 9.599994352260715809e-05 -1.329999959835998120e-04 -1.319000119703662858e-03 1.617999900726143150e-03 4.830000056645071971e-04 -1.700000615966427021e-05 7.399999861239995973e-05 -1.019999999800793157e-04 -1.303999921704554824e-03 -1.091000099384994764e-03 -7.639999917123342296e-04 1.776000236157121871e-03 -3.087999865208184737e-03 4.729999932812672296e-04 1.539999539203290265e-04 5.930000114243084335e-04 -2.230000014423915073e-04 -3.999994379963326199e-06 -1.000000006541254131e-04 -3.519999998780329385e-04 -1.610999816572152021e-03 -2.380000121220035916e-03 6.210000112698132319e-04 -6.148996536259573528e-03 -4.290800042549280935e-02 3.960200007680138301e-02 1.072070002549334738e-01 -1.986991872968257161e-03 1.895999941021762197e-02 -5.753000067116893941e-03 2.531999587406813784e-03 2.253300002922657350e-02 2.365000210789182898e-03 -1.304999800850243806e-03 2.030699998824907551e-02 -3.459998057529918266e-04 -1.070000005661123250e-03 2.053000000297866903e-02 -2.583000097696983976e-03 2.675999823591735695e-03 1.896600001158479237e-02 -1.902999530363446790e-03 -4.632000122332643847e-03 2.161600001513108021e-02 -1.058999811059548220e-03 -1.031000060012017723e-03 2.010300000687536767e-02 2.769000168641790830e-03 -7.709997706142630164e-04 1.998799998548565424e-02 5.710001483714048989e-04 -5.239999371372466375e-04 1.969999999737157351e-02 2.700017282024656996e-05 -8.279999780164022920e-04 1.996400000067803313e-02 5.510005078647579012e-04 -5.222999937906674071e-03 2.044400000217569055e-02 1.413900099214445392e-02 -1.261599892378848127e-02 6.882999934556589122e-03 -1.322999829922540897e-03 -6.300000779037395835e-04 2.218000000793205959e-02 -1.622999979922221461e-03 1.223999897637168075e-03 2.040800000773609901e-02 -1.708199886197400014e-02 -1.442000128333167062e-02 8.594000108693969700e-03 -2.415599858507685646e-02 -2.007200184558646100e-02 -1.868299984661292434e-02 -9.169000708643624750e-03 6.991999274002738511e-03 -3.257999995637259061e-02 2.231999906940092173e-03 -2.549998515234056635e-04 -2.035300001206560502e-02 1.713500079113981778e-02 -1.272599873507963830e-02 -3.103900008187102100e-02 1.977000406426700913e-03 -7.004999872802859968e-03 -2.234900000391562558e-02 2.587999943743356582e-03 -7.459998246589651496e-04 -2.041300001354022509e-02 2.063999794087966778e-03 1.394000137917292877e-03 -1.820400001278541652e-02 -1.129000050618059452e-03 -8.180001057416718627e-04 -2.037799999295100348e-02 6.889997216733176029e-04 2.225000032194632358e-03 -1.993700000602567982e-02 -5.600006862795016432e-05 -5.190000237573429197e-04 -1.954399999917246986e-02 -7.919999913746057166e-04 -1.616000080455046953e-03 -2.057899999401409039e-02 1.396000217409387473e-03 -4.348999914598459561e-03 -2.020100000336160634e-02 6.499999903932252845e-04 -1.337999970890784525e-03 -2.007300000225141143e-02 3.599997501474514871e-05 -1.184000018003003975e-03 -2.074899999901604411e-02 -1.842000009123738978e-03 -1.343000159342407768e-03 -2.005399998849093438e-02 3.800309237244611305e-05 -4.065199999389556423e-02 3.234000040396571834e-03
-3.778012813180365356e-03 1.695999997167496054e-01 2.483999851444563482e-03 -3.801000003137574093e-03 1.199971212584440747e-05 -4.039999790310158634e-04 -3.788000171190230962e-03 2.101999711302063485e-03 -2.212999981190425999e-03 4.289999966112194980e-04 1.700003206480838212e-05 -3.810000023849988734e-04 -6.519998673805288414e-04 -1.672000048195177759e-03 1.117000005269067238e-03 -3.360800090631921311e-02 1.385699748385843186e-02 2.566900017166987361e-02 -3.097799895824748448e-02 -1.555000236717675108e-02 -2.432999981347338733e-02 -2.112999952806218426e-03 -6.840001606278092684e-04 -8.219999876533138575e-04 -7.440000078323430422e-04 9.399994360023515832e-05 -1.309999959871219297e-04 -1.319000119628032600e-03 1.616999900726143018e-03 4.830000056655060726e-04 -1.900000599736403764e-05 7.199999846313720172e-05 -9.999999996704185795e-05 -1.302999921628924434e-03 -1.092000099309364640e-03 -7.639999917168552443e-04 1.775000236081491697e-03 -3.086999865283814645e-03 4.729999932857881901e-04 1.539999539959592838e-04 5.920000114243084092e-04 -2.230000014413926048e-04 -4.999994374443468876e-06 -1.000000007287567949e-04 -3.509999998725130783e-04 -1.609999816566632432e-03 -2.380000121143406675e-03 6.220000112642933661e-04 -6.150996540665983926e-03 -4.285200042567503809e-02 3.957100007675648512e-02 1.071530002547711746e-01 -1.984991877054288756e-03 1.895799941051369564e-02 -5.753000067015312871e-03 2.529999587397823747e-03 2.252400002922856984e-02 2.362000210604803512e-03 -1.302999801083127782e-03 2.030099998826363772e-02 -3.479998059428912952e-04 -1.068000005819375953e-03 2.052300000298771035e-02 -2.585000097708024022e-03 2.675999823438477646e-03 1.896400001159583362e-02 -1.904999530499795453e-03 -4.631000122494891534e-03 2.160500001514112020e-02 -1.057999811087147321e-03 -1.031000059941381735e-03 2.009800000686984972e-02 2.767000168533041184e-03 -7.699997707715167594e-04 1.998199998549569575e-02 5.700001481169148692e-04 -5.209999372178711992e-04 1.969499999737409773e-02 2.800017268941775448e-05 -8.269999779507608735e-04 1.995400000067151444e-02 5.510005077079774966e-04 -5.220999937907672139e-03 2.044300000217369462e-02 1.411500099078475887e-02 -1.259699892558962218e-02 6.896999934670086999e-03 -1.324999829977739412e-03 -6.300000780649888527e-04 2.217000000794309977e-02 -1.623999980036490648e-03 1.224999897554545497e-03 2.040100000774061964e-02 -1.706099886333369356e-02 -1.440100128172945235e-02 8.608000108559074257e-03 -2.413399858662480454e-02 -2.005000184390162005e-02 -1.866199984675633722e-02 -9.166000708241747036e-03 6.987999274247608944e-03 -3.256199995638515282e-02 2.231999907054361444e-03 -2.559998515164135053e-04 -2.034600001206460576e-02 1.711000078982979900e-02 -1.270699873694742035e-02 -3.101600008175200290e-02 1.963000405624014746e-03 -6.992999873842705404e-03 -2.233000000385033240e-02 2.583999943717404588e-03 -7.449998249524962752e-04 -2.040400001351914266e-02 2.050999794482677527e-03 1.389000136937096038e-03 -1.820100001270866241e-02 -1.133000050627451342e-03 -8.170001060322063620e-04 -2.036599999292992152e-02 6.859997217174763256e-04 2.225000031975732807e-03 -1.992900000600911908e-02 -5.600006866494143483e-05 -5.180000237503507672e-04 -1.953699999917346899e-02 -7.919999913950373982e-04 -1.615000080445058066e-03 -2.056899999401508999e-02 1.395000217313325510e-03 -4.346999914664102099e-03 -2.019100000335808179e-02 6.489999905130144214e-04 -1.338999970958423694e-03 -2.006500000224489128e-02 3.699997498327372485e-05 -1.183000017919382798e-03 -2.074099999902256214e-02 -1.841000009155210415e-03 -1.342000159258786591e-03 -2.004599998849745587e-02 3.800308784789478619e-05 -4.059399999392053482e-02 3.209000040338637425e-03
-3.774012791485520987e-03 1.693129997170501333e-01 2.481999851709161455e-03 -3.798000003202164822e-03 1.299971235473293078e-05 -4.019999790485743064e-04 -3.785000171221702351e-03 2.102999711536944743e-03 -2.204999981207984242e-03 4.289999966277790598e-04 1.700003206780501189e-05 -3.780000023849989089e-04 -6.539998679154604725e-04 -1.665000048347437195e-03 1.116000005273114866e-03 -3.355300090480990705e-02 1.383499748799012739e-02 2.564100017138825488e-02 -3.092699895985450559e-02 -1.552700236329563471e-02 -2.430599981377787669e-02 -2.110999952579328039e-03 -6.870001604765487184e-04 -8.219999876613570114e-04 -7.420000080647537639e-04 9.699994375049680255e-05 -1.319999960011582522e-04 -1.319000119238841751e-03 1.611999900728140755e-03 4.850000056705004985e-04 -1.900000622977466566e-05 7.499999846213830431e-05 -1.009999999700384815e-04 -1.301999921385474076e-03 -1.095000099230737829e-03 -7.609999917193783266e-04 1.770000235703340398e-03 -3.081999865661966351e-03 4.729999933083931006e-04 1.549999543741105402e-04 5.870000114999386533e-04 -2.230000014419180904e-04 -4.999994217663098126e-06 -1.020000007277579003e-04 -3.499999998705153031e-04 -1.605999817096044136e-03 -2.373000120840885584e-03 6.220000112352217858e-04 -6.153996546387354750e-03 -4.278000042595186264e-02 3.952100007670112519e-02 1.071000002544780505e-01 -1.981991881074679149e-03 1.894599941080325062e-02 -5.755000067059471390e-03 2.529999587238572229e-03 2.251600002923961202e-02 2.358000210425943450e-03 -1.300999801390643465e-03 2.029599998828372082e-02 -3.499998062785314966e-04 -1.064000005976629840e-03 2.051700000299475427e-02 -2.591000097951474609e-03 2.678999822981699332e-03 1.896100001162595583e-02 -1.906999530468324149e-03 -4.632000122654143619e-03 2.159700001515316159e-02 -1.055999811055675919e-03 -1.032000059798112140e-03 2.009000000685980808e-02 2.765000168575552485e-03 -7.709997709287705510e-04 1.997599998550773567e-02 5.680001481539061724e-04 -5.219999373761238662e-04 1.968799999738613665e-02 2.900017243492770218e-05 -8.239999778801249206e-04 1.994900000066299889e-02 5.520005069831464099e-04 -5.211999937840032342e-03 2.043500000215918086e-02 1.408100098935495190e-02 -1.257699892814606764e-02 6.911999934837783841e-03 -1.329999830114088040e-03 -6.290000784541277448e-04 2.215900000796970290e-02 -1.620999980156279845e-03 1.225999897773445398e-03 2.039300000772306318e-02 -1.703199886499039140e-02 -1.437800127952119228e-02 8.623000108376025624e-03 -2.411199858816723968e-02 -2.002800184221577989e-02 -1.863999984689974562e-02 -9.163000708219666210e-03 6.987999274478495434e-03 -3.255799995640171196e-02 2.225999906903101001e-03 -2.539998519701950545e-04 -2.034600001203348482e-02 1.708000078844415168e-02 -1.268699873919335377e-02 -3.099300008160638456e-02 1.941000404199727308e-03 -6.972999875490588570e-03 -2.231400000374887324e-02 2.579999943767083501e-03 -7.449998252460273166e-04 -2.039500001349706451e-02 2.034999795335042192e-03 1.377000135717023092e-03 -1.821100001260836029e-02 -1.138000050605372012e-03 -8.170001064063621464e-04 -2.036199999290232501e-02 6.849997218041463387e-04 2.224000031902099734e-03 -1.992700000600260146e-02 -5.900006886975278013e-05 -5.150000239732460726e-04 -1.953299999915990640e-02 -7.899999915131788487e-04 -1.613000080287804467e-03 -2.056299999402812911e-02 1.392000217173104595e-03 -4.344999914888993987e-03 -2.018900000334351852e-02 6.449999904760231892e-04 -1.337999971253952787e-03 -2.005800000222381085e-02 3.699997471939167577e-05 -1.179000017912390464e-03 -2.073399999902655888e-02 -1.838000009360021879e-03 -1.339000159027900136e-03 -2.004199998851700915e-02 3.700308201390193393e-05 -4.051999999403912284e-02 3.166000040270240245e-03
-3.768012759829561954e-03 1.688939997174979113e-01 2.475999852094571546e-03 -3.797000003202164690e-03 1.299971243036318804e-05 -4.019999790540941423e-04 -3.781000170675730999e-03 2.095999711842462879e-03 -2.201999981223071601e-03 4.289999966868497552e-04 1.600003206480838492e-05 -3.810000023839999980e-04 -6.579998686496834736e-04 -1.655000048645962696e-03 1.120000005285205335e-03 -3.344600090182827529e-02 1.379199749603362245e-02 2.559200017084058143e-02 -3.084699896311105319e-02 -1.548000235719127621e-02 -2.425199981426641102e-02 -2.108999952811738653e-03 -6.840001603262871148e-04 -8.229999876753932254e-04 -7.370000078969336744e-04 9.499994413164472085e-05 -1.289999960267597704e-04 -1.316000119146651642e-03 1.610999900958028129e-03 4.880000056549397766e-04 -1.900000599184418143e-05 7.199999846413609073e-05 -9.899999996704184719e-05 -1.305999921357874939e-03 -1.095000099528264373e-03 -7.559999916972990784e-04 1.756000234924958575e-03 -3.071999866724785429e-03 4.689999933756823307e-04 1.559999540014791141e-04 5.920000115765677992e-04 -2.220000014524323335e-04 -3.999994223182955450e-06 -1.020000006531265185e-04 -3.509999998760352175e-04 -1.597999817852346731e-03 -2.363000120235843500e-03 6.220000111810742357e-04 -6.146996554737001184e-03 -4.267500042549637190e-02 3.944700007655761037e-02 1.070200002540518669e-01 -1.975991887120105532e-03 1.895099941123884468e-02 -5.760000067050079393e-03 2.528999586848434088e-03 2.250400002926820908e-02 2.350000210418775812e-03 -1.301999802010668679e-03 2.028099998832887801e-02 -3.489998069332522703e-04 -1.056000005909989809e-03 2.050800000298124218e-02 -2.586000098281595293e-03 2.682999823354856664e-03 1.895600001159436152e-02 -1.914999530755933255e-03 -4.629000123270173885e-03 2.158600001519432252e-02 -1.061999810970653798e-03 -1.034000060263880237e-03 2.007800000689492423e-02 2.760000168050012574e-03 -7.649997713199071809e-04 1.996299998552934080e-02 5.710001475692957603e-04 -5.149999371592218957e-04 1.967799999736258645e-02 2.900017246087926024e-05 -8.249999778891149325e-04 1.994000000066399603e-02 5.500005058856838542e-04 -5.197999937998286704e-03 2.042800000215624218e-02 1.403300098723507874e-02 -1.254699893174935146e-02 6.938999935072771331e-03 -1.333999830012506200e-03 -6.310000787656387016e-04 2.215000000799377880e-02 -1.623999979768736513e-03 1.219999897534567975e-03 2.038100000774561646e-02 -1.698699886691096977e-02 -1.435100127609585316e-02 8.645000108100662009e-03 -2.406099859055650658e-02 -1.999400183832567360e-02 -1.860699984721522066e-02 -9.166000707823309182e-03 6.983999274268584689e-03 -3.254099995638115583e-02 2.213999907148198488e-03 -2.559998528607771990e-04 -2.032900001196524808e-02 1.703200078657102212e-02 -1.265799874276567205e-02 -3.093500008137040069e-02 1.918000402037344605e-03 -6.941999877197122144e-03 -2.228100000365288227e-02 2.576999943870313028e-03 -7.459998254679237354e-04 -2.039000001347950411e-02 1.998999796371786659e-03 1.363000132990338422e-03 -1.821500001239565944e-02 -1.144000050760504792e-03 -8.140001068471583445e-04 -2.034899999287219721e-02 6.849997217301637435e-04 2.226000031916084473e-03 -1.991300000600459974e-02 -5.800006882559393317e-05 -5.150000238896248117e-04 -1.952499999916542869e-02 -7.909999912901602209e-04 -1.615000080350449283e-03 -2.054999999402060823e-02 1.387000216494080253e-03 -4.334999915253162292e-03 -2.017500000332590748e-02 6.399999900774402083e-04 -1.331999971622115173e-03 -2.004800000220220355e-02 3.399997450518834783e-05 -1.175000018123299348e-03 -2.071799999901399389e-02 -1.835000009153562933e-03 -1.341000158791020658e-03 -2.003199998853157429e-02 4.100307377465268083e-05 -4.041499999379053604e-02 3.112000040143279075e-03
-3.743012715560486287e-03 1.683109997194206509e-01 2.507999852538920441e-03 -3.763000003969506867e-03 2.299971499979416463e-05 -4.039999792517580163e-04 -3.772000170846846398e-03 2.095999712492170163e-03 -2.232999981272750390e-03 4.499999999373030155e-04 -2.799996636094035263e-05 -3.950000024559664259e-04 -6.499998719017846668e-04 -1.612000048040920785e-03 1.120000005198094895e-03 -3.334600089837795600e-02 1.374199750353671465e-02 2.553200017033854102e-02 -3.076799896613132204e-02 -1.543700235117453218e-02 -2.420999981474543025e-02 -2.117999953400220934e-03 -6.760001610039627178e-04 -8.199999876337055790e-04 -7.460000059509786690e-04 6.999994346096123003e-05 -1.189999959521091720e-04 -1.318000118401388898e-03 1.600999900804769838e-03 4.860000056759682628e-04 -2.100000629988506111e-05 7.599999831187667599e-05 -9.999999995999764735e-05 -1.293999922848400666e-03 -1.075000098616705731e-03 -7.519999917835147379e-04 1.761000235682908931e-03 -3.080999866332649779e-03 4.829999933570728828e-04 1.269999577885119215e-04 5.420000093842892996e-04 -2.210000012424126990e-04 -1.999994090129730578e-06 -1.050000005188469191e-04 -3.679999998840782424e-04 -1.596999818732310235e-03 -2.351000120155218465e-03 6.270000111635677447e-04 -6.165996566399466368e-03 -4.252700042701825639e-02 3.936200007651464994e-02 1.068960002541606141e-01 -1.976991896492264096e-03 1.895699941192430932e-02 -5.755000065907880415e-03 2.511999587200614958e-03 2.247800002925759086e-02 2.354000210564516967e-03 -1.303999801709146466e-03 2.027999998830879586e-02 -3.609998077502732210e-04 -1.046000006828540392e-03 2.049700000303749520e-02 -2.593000098181660537e-03 2.679999822802470438e-03 1.893300001163599616e-02 -1.913999531441548533e-03 -4.623000123236496034e-03 2.154400001518281052e-02 -1.045999811344932792e-03 -1.030000059066781730e-03 2.006500000680261006e-02 2.759000168402212481e-03 -7.689997713865476562e-04 1.997199998553885608e-02 5.680001471232584915e-04 -5.109999374120833323e-04 1.965199999737514761e-02 3.500017112548616059e-05 -8.079999774443232885e-04 1.993100000061389862e-02 5.460005050686628269e-04 -5.187999938311795012e-03 2.041700000216833261e-02 1.396500098390347604e-02 -1.250199893687922378e-02 6.951999935403171960e-03 -1.342999830851606801e-03 -6.210000794612942311e-04 2.213500000803346815e-02 -1.602999979624643908e-03 1.216999899107820389e-03 2.036600000763269525e-02 -1.694999886887793919e-02 -1.432200127325657969e-02 8.686000107867459033e-03 -2.400699859374294878e-02 -1.994800183418870068e-02 -1.855399984755924311e-02 -9.165000707022846055e-03 6.973999274352206575e-03 -3.253299995637668612e-02 2.207999907590940756e-03 -2.619998533165565310e-04 -2.033100001192613207e-02 1.697300078415027794e-02 -1.262299874718690422e-02 -3.089400008107968942e-02 1.866000398652190506e-03 -6.895999881112915147e-03 -2.226400000341179769e-02 2.568999944580232803e-03 -7.539998260539871374e-04 -2.037100001342735667e-02 1.972999798568936258e-03 1.333000131010966599e-03 -1.822800001222217928e-02 -1.138000051782337005e-03 -8.010001064003689384e-04 -2.035599999291830275e-02 6.659997221138350002e-04 2.221000030480108339e-03 -1.991200000589472829e-02 -6.200006920209750561e-05 -5.090000241781616553e-04 -1.951099999914934074e-02 -7.819999927955978121e-04 -1.594000079654793759e-03 -2.053499999409126586e-02 1.392000216186039131e-03 -4.330999914876008591e-03 -2.017600000335750474e-02 6.349999899482591326e-04 -1.329999971996270909e-03 -2.004400000217660197e-02 4.099997342041316169e-05 -1.160000017584897521e-03 -2.070899999906761907e-02 -1.817000010429885293e-03 -1.325000157441662794e-03 -2.004399998864691071e-02 2.500306216021786482e-05 -4.026799999509052264e-02 3.022000040084761412e-03
