-1.412881090529999938e+03
-1.412881092020000096e+03
-1.412881094769999891e+03
-1.412881099120000044e+03
-1.412881104979999918e+03
