-1.412881107969999903e+03
-1.412881109839999908e+03
-1.412881113480000067e+03
-1.412881118770000057e+03
-1.412881125939999947e+03
