-3.475310190560714599e-09 4.346399996595814996e-02 -3.408000004341516648e-02 -4.280000079373860408e-04 2.479999695880477574e-04 1.960000002114776606e-03 -9.999201421921970253e-07 -1.121000000966625252e-03 -8.919999988747396311e-04 4.289999922193918304e-04 2.460000344041774400e-04 1.960999997386258381e-03 3.764300145548549886e-02 -2.173199718709087694e-02 -3.407900018607633308e-02 -3.764099854446072840e-02 -2.173300288084318438e-02 -3.408299977051854057e-02 -2.360000407366145926e-04 4.119999804182065506e-04 -1.734999999108851297e-03 2.359999590530528226e-04 4.150000161186848417e-04 -1.732000001717219715e-03 -2.419999784708330964e-04 -4.110000200315771070e-04 -1.730999998253656596e-03 1.000048407154642067e-06 -4.969999979665696557e-04 1.960000000490921476e-03 2.400000215070860758e-04 -4.109999835817883902e-04 -1.735000000914227025e-03 1.000004925358736803e-06 1.000000980612720674e-06 9.059999999934812472e-04 -4.760000093224577597e-04 -3.000037728059655398e-06 -1.729999997369552041e-03 9.689999525831211177e-04 5.620000723967175267e-04 -8.900000059101085062e-04 -9.700000473467629541e-04 5.609999257486491392e-04 -8.909999952061098622e-04 4.759999905908695933e-04 -1.999965730052137316e-06 -1.732000002625453490e-03 6.001430529022323487e-06 2.000259350685947468e-06 2.591879999999648354e-01 -5.979999848465945671e-03 -4.940004316081696416e-04 2.068400003350218119e-02 -2.999962937219221647e-06 1.107000021630530177e-03 2.188199999891080050e-02 5.980000151528499890e-03 -4.939995270712870716e-04 2.068299996748471092e-02 3.419000487110999704e-03 -4.930999720758366331e-03 2.068499998605307158e-02 -3.416999512743239785e-03 -4.933000237767806197e-03 2.068400002378880526e-02 -6.199988320233102703e-05 -3.499998403230170297e-05 2.068000000037719180e-02 6.100011667400738859e-05 -3.299997472478564020e-05 2.068499999969625192e-02 -9.599998372987988797e-04 -5.540000507446249953e-04 2.188500000585244173e-02 4.709145179695091560e-11 8.820000205928434827e-04 2.061599999911898837e-02 9.610001627437066889e-04 -5.549999054648933070e-04 2.187899999524979544e-02 -9.998910402787105295e-07 6.900002058613808329e-05 2.068499999993659438e-02 -2.560000296191561938e-03 5.425999827048293492e-03 2.068500000871092634e-02 7.620001470210993784e-04 -4.389999217729008223e-04 2.061999999623237781e-02 -7.639998527575253074e-04 -4.420000371856728995e-04 2.061900000465867119e-02 2.562999704035314689e-03 5.423000214502102581e-03 2.068499998043570043e-02 -2.483400146303373079e-02 1.433699805326419871e-02 -6.861099987724079974e-02 -7.330000812271418023e-04 -3.700000751997571148e-04 -1.978499999558436251e-02 7.299999186381530159e-04 -3.679999645496935729e-04 -1.978200000366190855e-02 2.483399853690153314e-02 1.433800180966983244e-02 -6.860900015140199149e-02 -2.998209938491245855e-06 -2.867600006875875226e-02 -6.860899997133966532e-02 4.019999720035888346e-03 2.320000285122891456e-03 -1.893200002450721314e-02 9.998842359447136742e-07 -1.000020886800237462e-06 -2.098600000000452187e-02 -4.020000280174420258e-03 2.322999677058616708e-03 -1.892899998013057236e-02 6.799999246885738997e-04 -4.479999683312062123e-04 -1.978200000330600575e-02 -6.850000753169419813e-04 -4.480000715675067969e-04 -1.978299999577140186e-02 -1.000116136686713166e-06 3.999978962938109690e-06 -2.098499999999847709e-02 2.999883933423677323e-06 2.999979264460266511e-06 -2.098600000001955845e-02 -4.800017091910944685e-05 8.159999766079648314e-04 -1.978400000055012889e-02 -2.000110533456772372e-06 9.999798602139556057e-07 -2.001099999998996043e-02 4.699982901629972895e-05 8.169999837948370468e-04 -1.978200000107551565e-02 2.000246649383707674e-06 -4.643000018759464026e-03 -1.893199999537325748e-02
-3.473364235565500820e-09 4.343899996596813778e-02 -3.407000004339019728e-02 -4.280000078672756736e-04 2.469999695870488577e-04 1.959000002115775674e-03 7.972310685068070397e-11 -1.119000000887998211e-03 -8.889999988822573076e-04 4.269999921327218527e-04 2.470000342509191447e-04 1.958999997396299129e-03 3.762000145462760653e-02 -2.171999718882137997e-02 -3.407000018596136742e-02 -3.761899854537217175e-02 -2.172000287916633562e-02 -3.406999977065296170e-02 -2.370000407846455863e-04 4.129999803475706949e-04 -1.729999999104330161e-03 2.369999592909832905e-04 4.120000161963128312e-04 -1.730000001719742822e-03 -2.389999784708331319e-04 -4.110000198046863352e-04 -1.730999998270216266e-03 4.817474401676721461e-11 -4.939999980431987155e-04 1.959000000493444932e-03 2.390000215346853665e-04 -4.109999836524242701e-04 -1.730000000908707121e-03 5.006508852841711930e-12 9.059813428769911491e-13 9.070000000000000371e-04 -4.760000094792381101e-04 -1.000037729058537726e-06 -1.730999997371549708e-03 9.699999528155316955e-04 5.590000724733466949e-04 -8.890000059126318540e-04 -9.690000472656127824e-04 5.599999258252782476e-04 -8.899999952106308525e-04 4.759999905963894834e-04 -1.999965729053260584e-06 -1.731000002625453357e-03 1.430293892977550962e-09 2.588269830249175198e-10 2.591180000000000150e-01 -5.973999848510104863e-03 -4.940004311623791017e-04 2.067600003346906079e-02 3.708321247355886728e-11 1.106000021847432062e-03 2.187199999889524044e-02 5.974000151559970447e-03 -4.949995275330596432e-04 2.067499996751882493e-02 3.416000486828910283e-03 -4.927999720995245893e-03 2.067499998606663753e-02 -3.414999513165550143e-03 -4.928000237624536456e-03 2.067600002377276841e-02 -6.099988315981988955e-05 -3.599998396266470245e-05 2.067400000037267205e-02 6.100011683465989931e-05 -3.599997473677215090e-05 2.067299999969924792e-02 -9.579998374517071161e-04 -5.530000506073487129e-04 2.187100000584040263e-02 4.719855346899908440e-11 8.800000205848525388e-04 2.060799999912098918e-02 9.580001626239174548e-04 -5.539999056997750582e-04 2.187099999526535832e-02 1.088288924746836634e-10 7.000002065177956959e-05 2.067499999993007917e-02 -2.559000295857568989e-03 5.420999827115932299e-03 2.067700000871040139e-02 7.630001471061216697e-04 -4.409999217092570650e-04 2.060799999622885473e-02 -7.619998528993937635e-04 -4.410000370463988662e-04 2.060700000464663409e-02 2.559999704055746297e-03 5.422000214265223356e-03 2.067499998045325971e-02 -2.483000146276103520e-02 1.433499805358869582e-02 -6.858899987726088665e-02 -7.320000814744643397e-04 -3.660000751141381683e-04 -1.977499999559387961e-02 7.309999185200116495e-04 -3.659999644680700685e-04 -1.977600000366942432e-02 2.482899853723882083e-02 1.433500180931165935e-02 -6.858900015137138484e-02 1.789718124307882183e-09 -2.867000006851188471e-02 -6.858899997136221061e-02 4.011999720312457718e-03 2.317000284526839638e-03 -1.892300002446005436e-02 -1.155465565032485616e-10 -3.000020950443966864e-06 -2.097399999999700199e-02 -4.013000279687519746e-03 2.316999677594022266e-03 -1.892299998016321733e-02 6.829999248950329544e-04 -4.499999680943266261e-04 -1.977200000332056742e-02 -6.830000751215227310e-04 -4.500000714082552731e-04 -1.977499999578044565e-02 -3.000115860117236365e-06 9.999788206674952012e-07 -2.097599999998444112e-02 1.999884075292202276e-06 1.999979200816534099e-06 -2.097400000001303777e-02 -4.900017092850143346e-05 8.169999765443211040e-04 -1.977200000054561008e-02 -1.103915882557677918e-10 -1.997653900352474649e-11 -1.999899999999999942e-02 4.799982906597843212e-05 8.169999838794571832e-04 -1.977300000108103348e-02 -9.997540572401609870e-07 -4.633000018977363917e-03 -1.892299999536668428e-02
-1.003469531396263524e-06 4.338999996591547809e-02 -3.404700004333573171e-02 -4.280000079539456027e-04 2.479999695850511310e-04 1.957000002114776642e-03 2.000079706547278568e-06 -1.119000000739734432e-03 -8.919999988932969439e-04 4.279999921216821510e-04 2.470000343245516510e-04 1.956999997390779407e-03 3.757700145279369713e-02 -2.169399719204950783e-02 -3.404600018574998471e-02 -3.757599854721159482e-02 -2.169400287589126272e-02 -3.404699977091628360e-02 -2.390000407090153505e-04 4.119999801963101561e-04 -1.729999999092291614e-03 2.379999591342029644e-04 4.140000162709442074e-04 -1.731000001727260379e-03 -2.399999780926818157e-04 -4.160000198803165514e-04 -1.730999998259701890e-03 4.831496482124872775e-11 -4.959999980451965150e-04 1.957000000495442635e-03 2.390000216158354868e-04 -4.119999836514253648e-04 -1.729000000907708438e-03 1.000004925358736803e-06 1.000000980612720674e-06 9.059999999934812472e-04 -4.780000094792381045e-04 -1.000037880319052892e-06 -1.730999997360510145e-03 9.689999526587513750e-04 5.610000723967175024e-04 -8.900000059091096307e-04 -9.680000473522827956e-04 5.609999258989107783e-04 -8.919999952171495583e-04 4.769999905908695634e-04 -1.999965654421879628e-06 -1.732000002630973380e-03 1.001429605558766868e-06 1.000258791737944308e-06 2.590069999999934924e-01 -5.970999848436121978e-03 -4.960004309494725266e-04 2.066200003345449940e-02 1.000037157195010235e-06 1.104000021909078014e-03 2.185799999889171882e-02 5.969000151466133386e-03 -4.949995279281918124e-04 2.065799996754642473e-02 3.414000486449110961e-03 -4.923999721160491651e-03 2.066099998607368038e-02 -3.414999513545349200e-03 -4.924000237638521266e-03 2.066200002376877495e-02 -5.999988331824798613e-05 -3.499998390201760023e-05 2.065900000036615183e-02 6.100011669279137419e-05 -3.499997474875867279e-05 2.066099999969824713e-02 -9.589998374699143643e-04 -5.540000506999598773e-04 2.185400000584691860e-02 1.000047045645232469e-06 8.810000206464984555e-04 2.059399999911446996e-02 9.590001623307884597e-04 -5.509999056361312335e-04 2.185899999525683923e-02 1.087681740652225149e-10 7.000002064079192596e-05 2.066399999993007858e-02 -2.556000295730036058e-03 5.417999827324843781e-03 2.065900000869683867e-02 7.650001469587332150e-04 -4.399999215709820156e-04 2.059499999621681662e-02 -7.629998529656321438e-04 -4.410000371340156832e-04 2.059500000465215239e-02 2.554999704421209803e-03 5.416000213871089916e-03 2.065899998048685571e-02 -2.482300146237406691e-02 1.433199805414707255e-02 -6.855999987729652356e-02 -7.320000814948960212e-04 -3.650000751041493352e-04 -1.976499999559487575e-02 7.329999184940601265e-04 -3.649999643078195963e-04 -1.976700000368146470e-02 2.481699853781568765e-02 1.433000180844005468e-02 -6.855300015130015578e-02 1.789273158053472771e-09 -2.866200006848291723e-02 -6.855999997137020296e-02 3.994999721046681510e-03 2.307000283237129953e-03 -1.892700002435623169e-02 -1.155725080622448580e-10 -2.000020941454076956e-06 -2.096499999999800259e-02 -3.995000278883186796e-03 2.305999678950372035e-03 -1.892799998025158567e-02 6.819999249447116158e-04 -4.499999681609670042e-04 -1.976300000331504547e-02 -6.810000749906938494e-04 -4.510000712470059740e-04 -1.976499999579048664e-02 -3.000115804918682220e-06 9.999788306562640041e-07 -2.096599999998443806e-02 9.998841950813063761e-07 9.999791331772945472e-07 -2.096600000000651762e-02 -4.900017088986244671e-05 8.169999765513132322e-04 -1.976500000054561001e-02 -1.104009802485474160e-10 9.999800354475161524e-07 -1.998700000000100049e-02 4.899982911565712175e-05 8.169999839640773196e-04 -1.976400000108655478e-02 -9.997554461840756097e-07 -4.615000018982358398e-03 -1.892799999538466449e-02
-1.003463153079763468e-06 4.330799996594744683e-02 -3.401500004325382076e-02 -4.280000080350957500e-04 2.489999695840522257e-04 1.956000002113777742e-03 -9.999206440047237735e-07 -1.114000000961630705e-03 -8.869999988817317462e-04 4.299999918727119216e-04 2.500000344718166824e-04 1.952999997376743012e-03 3.750700145026972243e-02 -2.165799719730766848e-02 -3.401000018539954844e-02 -3.750999855004912703e-02 -2.165400287086570105e-02 -3.401299977132055119e-02 -2.360000408381964215e-04 4.139999804271964241e-04 -1.725999999110849155e-03 2.379999595344336756e-04 4.090000162749397503e-04 -1.727000001722266012e-03 -2.389999784321941451e-04 -4.110000197976942070e-04 -1.723999998270216421e-03 4.818026387217277415e-11 -4.939999980421998400e-04 1.960000000493445065e-03 2.380000216969856098e-04 -4.129999837260567709e-04 -1.728000000901189648e-03 1.000005303510025035e-06 -3.999999019387264912e-06 9.059999999984756245e-04 -4.780000096194588930e-04 9.999621216786951875e-07 -1.728999997362508064e-03 9.659999528856420738e-04 5.580000721698267661e-04 -8.900000058895534425e-04 -9.650000471623833027e-04 5.589999261327937381e-04 -8.849999952317114159e-04 4.729999901646873188e-04 4.000034048051456066e-06 -1.727000002614887276e-03 -3.998570726703559155e-06 -2.999741701284175129e-06 2.588920000000251020e-01 -5.963999848480281037e-03 -4.960004304280517294e-04 2.065400003341585911e-02 4.000037000414630456e-06 1.106000022134970067e-03 2.185699999887316322e-02 5.964000151779693532e-03 -4.989995283043453366e-04 2.065999996757802298e-02 3.412000485962210679e-03 -4.917999721317744405e-03 2.065499998607872589e-02 -3.411999514107880160e-03 -4.917000237417624119e-03 2.065600002374522182e-02 -5.999988330720827369e-05 -3.499998390001984253e-05 2.066100000036615036e-02 6.100011690312257733e-05 -3.799997475175529755e-05 2.065799999970124520e-02 -9.579998375455445973e-04 -5.530000506243295958e-04 2.185400000584039951e-02 -1.999952819653809029e-06 8.790000204166111171e-04 2.059099999913302850e-02 9.600001624654894367e-04 -5.529999055634976513e-04 2.185599999525331821e-02 -9.998913350554664313e-07 7.100002056016730214e-05 2.065899999993460120e-02 -2.555000295379483439e-03 5.412999827395480190e-03 2.065400000869630978e-02 7.650001469311339813e-04 -4.399999215759763929e-04 2.058999999621681856e-02 -7.609998533067920297e-04 -4.370000369897473081e-04 2.058800000463711921e-02 2.551999704404650168e-03 5.416000213641202626e-03 2.065599998050341585e-02 -2.481400146173812910e-02 1.432599805486070924e-02 -6.852699987734021947e-02 -7.300000818399281352e-04 -3.600000749468956090e-04 -1.975899999561090900e-02 7.309999182191383909e-04 -3.609999644540857989e-04 -1.976200000367441673e-02 2.481099853826724405e-02 1.432600180801324279e-02 -6.852600015126304733e-02 -1.998211457769659176e-06 -2.865000006860221257e-02 -6.852799997137115628e-02 3.972999721980194875e-03 2.294000281564274098e-03 -1.893600002422181003e-02 9.998845953120163086e-07 -4.000020862827183052e-06 -2.096200000000152455e-02 -3.975000278019782778e-03 2.293999680454986319e-03 -1.893599998034999760e-02 6.809999253449423298e-04 -4.549999682326017728e-04 -1.975900000330453252e-02 -6.810000747306839538e-04 -4.540000712410126858e-04 -1.975899999578748650e-02 -4.000115841909948234e-06 1.999978762018141912e-06 -2.095899999997991731e-02 2.999884233720289021e-06 9.999792914299483196e-07 -2.095900000001755734e-02 -5.300017069996292745e-05 8.149999762557842828e-04 -1.975800000052153199e-02 9.998896376587361951e-07 9.999801180699122361e-07 -1.998000000000652032e-02 5.199982920784693927e-05 8.159999841939646935e-04 -1.976100000110211571e-02 -1.999757635589407087e-06 -4.587000019070973898e-03 -1.894099999540711440e-02
4.996546619206320453e-06 4.318199996644517258e-02 -3.397100004316108701e-02 -4.200000092081886452e-04 2.639999701821021407e-04 1.949000002054635970e-03 -1.299992046127275926e-05 -1.117000001877184760e-03 -8.949999988124968499e-04 4.299999918081213904e-04 2.510000344738144034e-04 1.954999997375744293e-03 3.738500144620719723e-02 -2.160099720648961039e-02 -3.396500018478306598e-02 -3.739199855386656640e-02 -2.159900286187940027e-02 -3.395099977202683389e-02 -2.410000402607536101e-04 4.059999800440508371e-04 -1.730999999075258497e-03 2.329999593555738600e-04 4.110000158917940811e-04 -1.732000001696664543e-03 -2.269999783250924868e-04 -4.130000188981221179e-04 -1.731999998334456895e-03 7.000048320484655998e-06 -4.959999975147858387e-04 1.958000000456803971e-03 2.280000224532882105e-04 -4.229999844823593156e-04 -1.728000000836002210e-03 3.000004071346475565e-06 1.200000112787769707e-05 9.019999999714539566e-04 -4.740000093279775470e-04 -3.000037577798016753e-06 -1.730999997380591737e-03 9.609999524909313209e-04 5.630000717886788665e-04 -8.930000058669485506e-04 -9.740000470293300140e-04 5.559999254351404669e-04 -9.019999951790360834e-04 4.729999904230494981e-04 3.404006045297096186e-11 -1.735000002610891535e-03 -1.499857184558645692e-05 -1.999742722004744932e-06 2.587030000000848373e-01 -5.941999848574118850e-03 -4.960004287811669525e-04 2.063700003329442187e-02 -6.999963369992350238e-06 1.109000021277066440e-03 2.183099999893088616e-02 5.962000151420327083e-03 -4.959995284795788977e-04 2.063599996758606545e-02 3.404000484555059179e-03 -4.900999721944761418e-03 2.063299998610590436e-02 -3.401999515240109427e-03 -4.904000236688291735e-03 2.062900002367704100e-02 -5.699988321279404600e-05 -3.799998369710211408e-05 2.063700000035258858e-02 6.100011615456428461e-05 -2.999997477772612260e-05 2.063199999969325682e-02 -9.609998374290510499e-04 -5.560000508711979497e-04 2.183400000585995412e-02 5.000045918935632069e-06 8.940000209230487133e-04 2.056799999907940601e-02 9.550001618681917132e-04 -5.469999059676197706e-04 2.182999999527492074e-02 6.000108755486619630e-06 6.900002107859145141e-05 2.064799999989795978e-02 -2.551000294814728502e-03 5.403999827677024616e-03 2.063300000868322284e-02 7.690001471823286515e-04 -4.449999212964295126e-04 2.056699999619972935e-02 -7.659998519581348543e-04 -4.560000373838805758e-04 2.057200000468369788e-02 2.546999705541328797e-03 5.399000213236081723e-03 2.062899998054799552e-02 -2.478400146068927487e-02 1.431599805718255722e-02 -6.847399987749580585e-02 -7.370000817902494028e-04 -3.600000754673175307e-04 -1.974999999557227118e-02 7.409999182263058608e-04 -3.599999636828001242e-04 -1.974700000373061717e-02 2.477999853908368841e-02 1.431900180572064606e-02 -6.847400015108492943e-02 2.001787257586965334e-06 -2.862900006824475527e-02 -6.847299997141420569e-02 3.939999723701484609e-03 2.270000279051494468e-03 -1.895300002401568290e-02 -7.000114895707860817e-06 -1.000002145788045961e-05 -2.095199999995137063e-02 -3.934000276060562427e-03 2.266999683540844163e-03 -1.895099998054933926e-02 6.749999250109499100e-04 -4.499999686783922996e-04 -1.975100000327640812e-02 -6.810000747676751972e-04 -4.530000712340205874e-04 -1.975199999578848564e-02 -2.000115932452060537e-06 3.999978924266297017e-06 -2.094799999999295836e-02 7.999882922054335407e-06 1.899997967857107762e-05 -2.095000000006313687e-02 -5.500017028317265554e-05 8.099999761115158833e-04 -1.975100000050549962e-02 9.998897684875480294e-07 -1.987194131595734252e-11 -1.997000000000552153e-02 4.899982912834455044e-05 8.179999839800593513e-04 -1.974800000108755532e-02 1.000024006238369602e-05 -4.557000018169404636e-03 -1.894699999550331776e-02
2.799655787427381276e-05 4.303799996825059815e-02 -3.390500004314420113e-02 -4.070000106484589751e-04 2.809999711373268433e-04 1.921000001965896811e-03 -5.999919956164817267e-06 -1.122000001324798945e-03 -8.719999988461414695e-04 4.469999916474688456e-04 2.540000357715153012e-04 1.966999997278910152e-03 3.726500144114268387e-02 -2.152899721549631634e-02 -3.389600018419260813e-02 -3.729499855806050340e-02 -2.153800285446735158e-02 -3.387499977262319051e-02 -2.500000385455615503e-04 3.849999793863527432e-04 -1.707999999004603626e-03 2.389999596006719203e-04 4.090000163625565673e-04 -1.715000001727785828e-03 -2.339999773236918447e-04 -4.250000194105528939e-04 -1.714999998283831288e-03 -1.299995053402170900e-05 -5.109999990253930556e-04 1.960000000582183977e-03 2.390000227834084695e-04 -4.269999836454321514e-04 -1.723000000892725052e-03 -2.999992534683906147e-06 -3.199999931391720262e-05 9.140000000485235671e-04 -4.640000099462837624e-04 6.999963203476452996e-06 -1.705999997445779327e-03 9.749999533891023050e-04 5.520000728594890316e-04 -8.810000059332388734e-04 -9.710000478949586903e-04 5.699999256969918949e-04 -8.669999952095799184e-04 4.549999887387522072e-04 2.300003268870451966e-05 -1.725000002534508381e-03 -1.499857263047694211e-05 -5.999742918783481296e-06 2.585060000000888314e-01 -5.935999847516943741e-03 -5.110004283413697047e-04 2.062300003327628695e-02 8.000036488139081824e-06 1.110000022399533926e-03 2.181899999884709049e-02 5.955000151322616987e-03 -4.949995290129861761e-04 2.063199996762370494e-02 3.405000485654746493e-03 -4.916999721889109276e-03 2.061299998611636555e-02 -3.411999514928196198e-03 -4.909000237456579742e-03 2.061700002373723084e-02 -6.399988301350252216e-05 -4.099998423150829062e-05 2.063200000039422735e-02 6.800011861889136082e-05 -6.199997424032320818e-05 2.063999999968657920e-02 -9.489998384470113221e-04 -5.440000499836124053e-04 2.181400000578173279e-02 -1.999953354008767111e-06 8.830000203746582281e-04 2.054899999912903480e-02 9.640001614994323301e-04 -5.429999052989339719e-04 2.181799999522125028e-02 -1.999989216253940825e-05 7.800001906925302473e-05 2.060500000003248275e-02 -2.548000296015420427e-03 5.418999827891928488e-03 2.062100000865168051e-02 7.590001456735955996e-04 -4.259999220657175465e-04 2.055399999623595125e-02 -7.629998527641161481e-04 -4.460000371659797653e-04 2.056300000465715108e-02 2.539999704925247331e-03 5.407000212704672799e-03 2.062699998057864262e-02 -2.479200146175032649e-02 1.433199805660448356e-02 -6.844699987746763470e-02 -7.340000832807750232e-04 -3.400000752364313130e-04 -1.974599999560880739e-02 7.359999188937140337e-04 -3.669999640359793689e-04 -1.972200000369602607e-02 2.476999854071163312e-02 1.430200180502627476e-02 -6.841200015101275844e-02 2.001787472861326120e-06 -2.862900006820580032e-02 -6.843399997141419444e-02 3.889999726132692057e-03 2.238000275271979662e-03 -1.895100002370772238e-02 1.399988534939013543e-05 -1.200001985266413471e-05 -2.093500000006529027e-02 -3.899000274614195655e-03 2.246999686175916392e-03 -1.896299998072255993e-02 6.909999272445141102e-04 -4.779999674473317203e-04 -1.973000000333675896e-02 -6.820000740395486781e-04 -4.600000712736912272e-04 -1.971599999577597698e-02 -1.000011538318523232e-05 -1.000021649810565668e-06 -2.091699999994380346e-02 -2.000114512613432527e-06 -1.200002103777633562e-05 -2.090999999997697478e-02 -5.400016995362904210e-05 8.089999762330946044e-04 -1.970500000051001940e-02 2.799988868923215918e-05 1.499998218006436742e-05 -1.996000000016953657e-02 5.699982840680880897e-05 8.289999846050788608e-04 -1.972800000114269953e-02 -1.599976456762150831e-05 -4.496000020138788203e-03 -1.894999999542073404e-02
