-5.118874314301570010e-06 -1.295861109904343038e-05 2.918999977993171936e-03 -3.311336284837274654e-05 5.703951099321346197e-05 2.784997845490464093e-03 3.288671853856687242e-05 5.703943095987644185e-05 2.783000533068496780e-03 -2.113279999477893839e-05 9.204627857991481196e-05 3.262997837474608011e-03 1.386724304775252859e-05 9.504623699695154810e-05 3.261999220172036220e-03 -1.126687967497798321e-06 9.704413625018314777e-05 3.112998581142252443e-03 7.487127979537201998e-05 -1.955242713366932739e-06 3.161003079480900497e-03 1.865130934132559517e-06 -1.579530872252071837e-04 3.309002318452288968e-03 -8.312855483950225830e-05 1.044824288541816852e-06 3.156996603056851872e-03 -5.128135233563506759e-06 -1.389554210823844423e-04 3.144001764182209266e-03 -2.212761206716881913e-05 -4.295556373687671020e-05 3.132999710872672820e-03 1.687242548703063913e-05 -4.695560845111890235e-05 3.132001355697849355e-03 -4.112304034730011892e-05 -2.895713677444178603e-05 3.020998738791927807e-03 3.887691964908134652e-05 -2.795718523643970919e-05 3.022001982281324276e-03 -4.124889245850349022e-06 2.043486430161996861e-06 3.066999805909990159e-03 7.873868796048479087e-06 8.004393071579645749e-05 3.098999188664906465e-03 -1.124462450601257595e-06 2.704334230069960733e-05 3.056999573637752664e-03 -1.412617033939775527e-05 8.204396211930562594e-05 3.099998264449724782e-03 4.952396741004105720e-06 2.026017122657573950e-03 1.207971478332516349e-03 -1.447959430852326871e-03 2.568499401393581696e-02 -5.024231191804134737e-04 1.435040405440299446e-03 2.568699181326888209e-02 -4.983057493258895255e-04 1.935826891141491845e-03 5.245060185356106505e-03 4.352004469152763975e-03 -1.943173353100599403e-03 5.241063307665371276e-03 4.357846569676759180e-03 -4.078941118838618840e-06 3.555028457608893928e-03 2.006949433301765621e-03 6.068800541343445827e-03 1.179306790800869684e-02 5.125079931716666759e-03 -4.188142486507970673e-06 2.674807280341466934e-02 5.134620605525886707e-03 -6.073199739116873219e-03 1.178607751439329429e-02 5.131585598380245666e-03 -6.247955408371700520e-03 1.194899262716239523e-02 -8.654238331693436684e-04 8.048045577654561983e-06 2.706899064784002232e-02 -6.593834514998792983e-04 6.251044332235145516e-03 1.194298292556082199e-02 -8.589147781902336165e-04 2.167312658648772978e-06 3.521942705607886918e-03 -4.041049848884722615e-03 -1.933926680313635162e-03 5.326977439881016262e-03 -1.698154277493591369e-03 1.943073312552913044e-03 5.321974404205424489e-03 -1.697996331864994914e-03 1.459257323243380025e-03 2.459291597173765553e-02 -5.846289256580736865e-03 -1.445742917105105694e-03 2.459491833140806105e-02 -5.840407579014335326e-03 -5.799417565737963044e-06 2.015930717608800920e-03 -4.887028822153308832e-03 -7.874883607810863071e-06 7.995646624634387912e-05 -3.071001457133089481e-03 1.261273294115195794e-07 1.895609136584468877e-05 -3.097000266498539742e-03 1.412503649940928528e-05 8.195647737581755895e-05 -3.069000589631751090e-03 3.126192313560113020e-06 -2.043939336617464146e-06 -3.098999846601094635e-03 3.812804115239353664e-05 -3.304461891694447981e-05 -3.144997981817875769e-03 -3.387200029230315909e-05 -3.404454836332507272e-05 -3.144000899542322668e-03 3.012322748059903399e-05 -4.404293967201343445e-05 -3.026998151738979816e-03 -2.587661350746194944e-05 -4.904295253490609691e-05 -3.031000361214106209e-03 1.123234506850383724e-06 -1.390429453111385590e-04 -3.028997985754273200e-03 -7.787787970325961895e-05 -2.042458134392511568e-06 -2.999003145082994315e-03 1.116457608791777373e-06 -1.610405917948904255e-04 -2.862997673997790676e-03 8.612232533206579793e-05 -4.265743494052350285e-08 -3.003996495214290678e-03 2.124473469763312160e-06 9.095668525999920436e-05 -3.055001205894850112e-03 2.611853055793650555e-05 9.395873642591205622e-05 -2.909000271263435453e-03 -1.688154849735884987e-05 9.695879845003505448e-05 -2.907002064795182784e-03 2.913804051427336777e-05 4.795192873978657607e-05 -3.388999496477554992e-03 -2.586162897194861255e-05 5.395185838160736983e-05 -3.397001821183510267e-03 3.132167307012967168e-06 -1.604602347112449721e-05 -3.245999647975754930e-03 -2.601320009465587111e-05 -1.571080382296735078e-01 -2.696773616170338242e-03 2.298471369898109779e-05 -1.571200375449715303e-01 -2.645771450762881335e-03 -1.178088000748135373e-05 -8.820765222545010140e-04 -5.397987978844863595e-03 -3.311048499195027792e-03 5.920021093926417996e-03 1.304781239689101115e-03 5.900072181994399152e-06 1.049903765046808664e-02 2.655851389517451151e-03 3.311951379417922905e-03 5.928015950675455913e-03 1.308050820461149812e-03 5.901237923663979768e-06 9.908037083415853832e-03 2.615859768612844270e-03 -3.053049830809445499e-03 5.624021274743724180e-03 1.331795942261576474e-03 3.062952522792370888e-03 5.620015663627507020e-03 1.274045047751976110e-03 -5.009840434738258471e-06 -1.899966217505686208e-04 2.380024899495587775e-04 2.299240937469449904e-05 -1.769974234545164599e-04 1.830034458735928715e-04 -2.500842449170642901e-05 6.002954377939216336e-06 2.069988967197143918e-04 -1.600974083683804478e-05 9.300342936724555144e-05 2.409980297103464866e-04 9.888487326140589934e-07 -4.399613024042628971e-05 2.730006642886633242e-04 1.399163189323803359e-05 7.800292383383069985e-05 2.069994640339383103e-04 2.000637427458614432e-06 -1.800022840890351625e-05 -1.599966334368178275e-05 -6.000862159843904073e-06 4.300031660514003548e-05 2.199914601061304500e-05 4.997829279137920514e-06 3.600076168233962446e-05 5.399969315457244542e-05 1.799707114393997285e-05 -1.519990358107274229e-04 6.900288793122481780e-05 -4.000170874990145872e-05 -1.539994157306096467e-04 3.900055450527494796e-05 1.899443454990912264e-05 1.700192747932400286e-05 1.370005325468372996e-04 2.900215896404148908e-05 9.992258698564157742e-07 -5.299883322381237127e-05 -2.993544973287166394e-06 -2.500225191795399824e-05 -1.589997675706605147e-04 -2.699606883690746430e-05 2.799866006971861852e-05 -9.600149635111578496e-05 -1.500328586340544678e-05 -3.599885402779939028e-05 7.999989951235020270e-05 5.996017996992158824e-06 6.300139889741290583e-05 9.899935103397801395e-05 4.997518400314084739e-06 5.500087510278711152e-05 6.199942376962979339e-05 -2.348641743883107238e-04 -9.969896395121083811e-05 2.121999186937110690e-02 6.415446431356319312e-05 -5.817058190489050483e-04 2.075301087902170494e-02 1.651367782893114154e-04 -1.306996174136367808e-04 2.119600859724453043e-02 -8.424155744828056375e-07 -1.337067322894030629e-04 2.068500188059155948e-02 1.171571340976500339e-04 -3.270664038179169059e-05 2.069800525368580002e-02 -9.784503492355967253e-05 -9.870573478560571703e-05 2.074999743438685901e-02 5.125153418256331521e-06 -1.036954372874998326e-04 2.148200169884287650e-02 3.912644629546308076e-05 -6.469590342495705297e-05 2.145100253044785604e-02 -3.786237732474630180e-05 -4.069972785260204641e-05 2.117699905493070772e-02 5.141589824668630413e-06 3.329887740274833474e-05 2.108099975686204830e-02 -1.858407868767743488e-06 -6.770114546168734028e-05 2.107900090377206118e-02 1.014183257841472454e-05 3.129878842119699901e-05 2.107499998882740935e-02 -8.538289884190765368e-07 2.152973367026829693e-04 2.097199693228531808e-02 -6.985551734135725464e-05 8.729794367634077941e-05 2.101099593726405909e-02 8.914523274050505151e-05 1.092975639774176037e-04 2.099300209998532576e-02 9.814617550600464562e-05 -3.870281167730714998e-05 2.096700456480614719e-02 -8.885463405425683876e-05 -3.270238170172360000e-05 2.098699686492181207e-02 1.714240183083295743e-05 -7.370144389391670514e-05 2.105900176255340664e-02 -8.322547271650545392e-03 -1.338803302824001507e-03 1.341368009263265750e-02 -1.826114823290690971e-05 -1.669909517225501381e-03 6.381022937957903270e-03 8.341451288515358900e-03 -1.339815854449005533e-03 1.344935867904089102e-02 1.112264428606765417e-05 -3.565695512525444630e-03 2.147705102658975171e-02 7.622666060527051417e-04 -1.676745708851966376e-03 1.797805482940641880e-02 -7.717336127092570613e-04 -1.645744422672215787e-03 1.798399192410455802e-02 -5.815111092283229430e-04 1.455153054626169735e-02 3.738877004651338515e-02 5.164880597727257829e-04 1.453152997008984315e-02 3.740881504154458526e-02 2.301006631369752255e-05 1.910345167799250765e-03 2.434697387513927447e-02 -3.726734736495003052e-05 1.874745453071290265e-03 -1.795602811400697288e-02 4.532088661831709534e-04 1.461493090987745977e-02 -4.848188756960824554e-03 -4.317920947364818586e-04 1.458293192892157891e-02 -4.825224341247012771e-03 -7.440120053531804143e-04 -1.735343880209100787e-03 -2.429600571602894693e-02 7.399880106546064462e-04 -1.713345042177614064e-03 -2.429594559819668598e-02 6.850918232769965639e-06 -3.462297213473166692e-03 -2.096295065277059902e-02 8.272175570256541308e-03 -1.342416143422937077e-03 -2.889464414442109719e-02 4.346411615981763429e-05 -1.717510263212276844e-03 -3.598797391304998927e-02 -8.299826491977906062e-03 -1.341402444543178096e-03 -2.884431898459097546e-02 -1.913579726732008037e-05 -2.030087968905427216e-05 -2.122300051113288483e-02 -1.213441354813897846e-05 -2.130136721496890041e-05 -2.125700021187755875e-02 2.986461851974778976e-05 -9.301059834928473015e-06 -2.123299867175728120e-02 8.886468039809998466e-05 1.216989081328873838e-04 -2.123199812651501220e-02 -1.141343319469162047e-04 1.346987268127077734e-04 -2.125600657713640207e-02 1.086563114643621932e-05 1.396986431154795749e-04 -2.125500155791976153e-02 8.886347358585193717e-05 -1.530070905282663481e-05 -2.120499618418651699e-02 -1.213809333661757707e-05 -9.230010538402397019e-05 -2.116799920533908586e-02 -7.213667505965191073e-05 2.699473718921318060e-06 -2.120100299544700612e-02 5.984621105807102690e-05 -1.152947033062136936e-04 -2.078299594770714048e-02 -2.416512412869746340e-05 -8.229068193295702930e-05 -2.050399983638418952e-02 -3.316494399925610034e-05 -6.029073159939093220e-05 -2.050800051477892280e-02 -1.671304369065649165e-04 -9.130264944524889585e-05 -2.135600553107400851e-02 1.488689817445743057e-04 -1.573027125540408697e-04 -2.134299172756475363e-02 -7.129882643959850062e-06 -1.633029873843058711e-04 -2.137099799492491597e-02 1.318458985773647335e-04 -4.629463208873463260e-05 -2.077399399407990621e-02 -3.213171364376629527e-05 -4.733024148441312582e-04 -2.133199461787577481e-02 -1.061530307547767617e-04 -8.329482853239429609e-05 -2.080100316104012415e-02
-3.118424819573270633e-06 -1.095876862098636065e-05 2.908000031089572751e-03 -3.411295642271671509e-05 5.603936999835679210e-05 2.774997818956672409e-03 2.988712339873472577e-05 5.403929153121370913e-05 2.773000453448529884e-03 -1.813235363517398891e-05 9.004612027537896930e-05 3.251997988002913818e-03 1.386772777996523077e-05 9.004606686391125646e-05 3.249999291072008453e-03 -4.126364549009967926e-06 9.404402517711113799e-05 3.104998501520426623e-03 7.687152725304725561e-05 2.044670653465329664e-06 3.155003104217125789e-03 -1.134417216271679547e-06 -1.529532408324718010e-04 3.298002125411144108e-03 -8.212835045255809715e-05 2.044752616468033510e-06 3.151996629604587007e-03 -4.127317683298730039e-06 -1.349557054216911378e-04 3.124001748210598461e-03 -2.312703962385879747e-05 -3.995576144331807226e-05 3.118999627631545597e-03 1.887308250382643346e-05 -3.995583686254270973e-05 3.116001337910081180e-03 -4.112230815575340041e-05 -2.995739197465751652e-05 3.002998752986424293e-03 3.587761112227625353e-05 -2.895742390987160553e-05 3.005001874312337572e-03 -2.124116335122419750e-06 1.043215486158595356e-06 3.047999901547118230e-03 9.874600202362910384e-06 7.804367394968922628e-05 3.080999298478867988e-03 -3.123895491476246091e-06 2.304314537796008330e-05 3.042999548920119219e-03 -1.312543971582741133e-05 7.904370613629535991e-05 3.081998347720599565e-03 -2.048468577285665460e-06 2.013017425873560567e-03 1.228971377577961878e-03 -1.433961055071041784e-03 2.553499452756742213e-02 -4.654204224583729436e-04 1.428038861113535042e-03 2.553499231498801078e-02 -4.633038793843363245e-04 1.921826869213045684e-03 5.217060196320876149e-03 4.352004296038225646e-03 -1.928173126026616916e-03 5.219063210855873908e-03 4.351847492405899742e-03 -2.079483028593360988e-06 3.539028640355854332e-03 2.019949741575598721e-03 6.023800854585331481e-03 1.172506781565021972e-02 5.116079063374648350e-03 -1.875160806996113846e-07 2.661207254509607989e-02 5.116622696601855549e-03 -6.030199176137919330e-03 1.172507726806367757e-02 5.116588214234358591e-03 -6.201954803107249080e-03 1.188999236430579587e-02 -8.814211235072740317e-04 5.048794935362242741e-06 2.693399035246891310e-02 -6.803816596448430650e-04 6.206045102025580136e-03 1.188598267724548692e-02 -8.789158024774243244e-04 3.167095732870035298e-06 3.504942775715581219e-03 -4.036049567146539688e-03 -1.925926380411475220e-03 5.293977320198010525e-03 -1.706153483853151088e-03 1.931073616389528558e-03 5.293974300181836755e-03 -1.705996423530394338e-03 1.449256064748557105e-03 2.444191637656111318e-02 -5.818287522972994015e-03 -1.439744051883532156e-03 2.444591868116998898e-02 -5.815405222225712711e-03 -1.799755089377960438e-06 2.000930827900691735e-03 -4.879028446610889427e-03 -6.875537492800906621e-06 7.695669230837596413e-05 -3.055001373893821617e-03 3.125679397683194015e-06 1.895624497260521940e-05 -3.086000144346212268e-03 1.112438183416335678e-05 7.795670656993507165e-05 -3.053000655098124343e-03 2.125663727042852307e-06 -1.043754242382397783e-06 -3.085999901511793896e-03 4.012739118444152601e-05 -3.104439363841259952e-05 -3.128997928746574120e-03 -3.487269097860696768e-05 -3.204430655800936505e-05 -3.127000968634503775e-03 2.612265582500950111e-05 -4.604273805069211255e-05 -3.012998286279871575e-03 -2.287722275540335091e-05 -4.704274221716574016e-05 -3.016000267421024145e-03 2.122624476994299864e-06 -1.380427334273050580e-04 -3.013997959225129912e-03 -7.487849051834799617e-05 -2.042247816450530821e-06 -2.984003022934385123e-03 1.115723850098085228e-06 -1.620403365944730651e-04 -2.844997659836759601e-03 8.012159079477502738e-05 -2.042397536445427184e-06 -2.985996711200603060e-03 3.123862656333741061e-06 9.095689714393349824e-05 -3.040001165187943260e-03 2.411775372934114411e-05 8.995900737041952514e-05 -2.890000296011746139e-03 -1.888220473058115464e-05 9.095902686135804859e-05 -2.891002061185177739e-03 3.113731067178831353e-05 5.195218237370755277e-05 -3.370999471763639396e-03 -2.586260627210888548e-05 5.395219864869608582e-05 -3.373001821205820830e-03 2.131435116295649596e-06 -1.504576748791261481e-05 -3.227999702891102152e-03 -2.301630456781391599e-05 -1.560810368710576490e-01 -2.600788054660106881e-03 2.198384652462082020e-05 -1.560960369630021716e-01 -2.604786009551636385e-03 -3.784080505434225319e-06 -8.610754084747536874e-04 -5.318987950884525480e-03 -3.300050960476742096e-03 5.897021935983500461e-03 1.364782013651247164e-03 4.897813705878165631e-06 1.042303841685969686e-02 2.709852426256425563e-03 3.297949440475703327e-03 5.896016627997010748e-03 1.355050704013974292e-03 -3.100380765979178129e-06 9.817037629228215351e-03 2.653860692266335041e-03 -3.040050402504116279e-03 5.570021448881557445e-03 1.344797237219783319e-03 3.049949874356423351e-03 5.566016581190803836e-03 1.338045283920644537e-03 -8.002372847058231080e-06 -1.699992139401478475e-04 5.500208440185257874e-05 9.998035129986167940e-06 -1.689993698121330641e-04 4.500280320870519502e-05 -7.003664086221737047e-06 1.001281482454969777e-06 8.999970069261486831e-05 2.997330469242569451e-06 7.500094755574000132e-05 6.699905876801022010e-05 -2.004104208855309330e-06 -4.099858065033809643e-05 1.000004997536400869e-04 -1.002104137120593754e-06 6.900075219919440765e-05 5.299898096420093172e-05 6.006715015758043201e-06 -5.002344033707810705e-06 -1.649996846326922371e-04 1.000340724649899393e-05 3.499881540949488886e-05 -8.300008893605352036e-05 -1.399659351716889165e-05 3.399883420150344286e-05 -8.300105205871684830e-05 9.969787463309331538e-07 -1.659989941427906775e-04 7.100239416358518948e-05 -1.100257644877008977e-05 -1.699991407021825675e-04 6.000196223465123534e-05 8.995035967921445624e-06 5.001722643564852374e-06 1.220002954854317067e-04 1.500192405349486566e-05 1.299932189736503935e-05 -4.699957345446719565e-05 -3.993937292961625664e-06 -6.002109358919627857e-06 -1.490000776783134782e-04 -1.399766166189103333e-05 2.199920282539262749e-05 -5.700088194972480237e-05 -3.005201319985755196e-06 -3.799819706716957377e-05 1.270004164743993979e-04 6.996514481977765882e-06 7.300122797986427676e-05 8.699924998834965360e-05 -7.003241964944049877e-06 7.200115387513908861e-05 8.099869407977508540e-05 -1.388574351564205703e-04 -7.370137845769782951e-05 2.105499541010434975e-02 1.816395625028700820e-05 -5.247090722853523393e-04 2.052100819794570527e-02 1.271421135594249217e-04 -7.770143077852306225e-05 2.106600629855157406e-02 -3.835703685554110421e-06 -1.427090692757422390e-04 2.052000188618226251e-02 1.501646454606429901e-04 -1.127093032825374653e-04 2.051200773186786716e-02 -1.358345477210832651e-04 -1.227093629005360448e-04 2.049199622750067645e-02 8.132385295228245704e-06 -7.269794910939276155e-05 2.130500138165930188e-02 -2.867810464113538564e-06 -6.269786960846634473e-05 2.131000079194765237e-02 -1.857442322209776809e-06 -8.270148572726389107e-05 2.105500111646082390e-02 -2.185298882118295809e-05 -1.170300127639761546e-05 2.094699929552299236e-02 -8.530350694361018749e-07 -7.070301771336901062e-05 2.094700098714890810e-02 2.414708866447722003e-05 -1.670306564930745816e-05 2.094500123957281773e-02 7.150310426304116471e-06 1.972958843054012856e-04 2.086999751334668585e-02 -4.185064024167962639e-05 1.272962345907677326e-04 2.089199651044797504e-02 4.615102610547968163e-05 1.232955843978993668e-04 2.085100015063203957e-02 5.615222573236574943e-05 -8.704877108206704675e-06 2.081900242933507755e-02 -4.084997546326352364e-05 -1.170403555632753060e-05 2.087299852189561031e-02 -2.851564416095969287e-06 -6.470352654861464008e-05 2.091100082067409022e-02 -8.306541638083569240e-03 -1.320805271889514574e-03 1.327568048909481650e-02 9.742194770618256084e-06 -1.664910701729117653e-03 6.299024007329143658e-03 8.294457085017945680e-03 -1.321817830896942483e-03 1.330735651009314936e-02 -8.674197940354486083e-07 -3.513698948339006277e-03 2.123404980092172961e-02 7.312735435340960441e-04 -1.605748080633659413e-03 1.780905256059592615e-02 -7.277263824334376111e-04 -1.616746966596749541e-03 1.780699330483140677e-02 -5.244997717184028251e-04 1.441752651768392866e-02 3.710777426768342713e-02 5.124994999314034854e-04 1.442452596091652398e-02 3.712581639594494942e-02 -9.819962368886034019e-07 1.906342421921465753e-03 2.415197295473116984e-02 -2.770945393154893352e-07 1.907748826767993169e-03 -1.771602707542477978e-02 4.752005598471726396e-04 1.451193375657659247e-02 -4.646186400980241264e-03 -4.757994769506139888e-04 1.451593451538332920e-02 -4.645225183221636869e-03 -7.390239232427013669e-04 -1.718339730031753733e-03 -2.400300575371903944e-02 7.289766370121911459e-04 -1.729341077958137032e-03 -2.401694581954118626e-02 1.083914831456078477e-05 -3.516293133394643184e-03 -2.067494972455569124e-02 8.272162682123170019e-03 -1.316411649064427826e-03 -2.857764451333762862e-02 -1.551803275602034418e-06 -1.662504670287212214e-03 -3.559597652562968700e-02 -8.265836983094933949e-03 -1.322398813295759101e-03 -2.858631786969937846e-02 -1.473620266232327156e-07 -7.229688224465124992e-05 -2.093999900045609083e-02 -3.414552640134784406e-05 -1.629747945142337028e-05 -2.098400117887887911e-02 3.385466931071812755e-05 -2.629760358313067641e-05 -2.098899826807872418e-02 5.185340780826601761e-05 1.307028643521534735e-04 -2.095499976104387568e-02 -4.514585365114756133e-05 1.377026851017583821e-04 -2.097300381019404081e-02 -8.145933531387096588e-06 1.917026986588428851e-04 -2.097000306912456813e-02 3.085162622023429797e-05 -1.229653790090132667e-05 -2.091399858879968224e-02 4.851990353657020093e-06 -6.729665931541027872e-05 -2.092399886775552637e-02 -3.214841601550048861e-05 -1.429647439414651585e-05 -2.091300112585870938e-02 4.841945601942169888e-06 -1.022931715742225262e-04 -2.067799837176248490e-02 -8.169192308101571226e-06 -7.728927668186326384e-05 -2.040399925583234741e-02 1.831301035125487497e-06 -7.128945464597405445e-05 -2.041599893367926355e-02 -1.481354886572053883e-04 -9.430090627524837074e-05 -2.123200471495981928e-02 1.348642957502720118e-04 -1.093010569726715240e-04 -2.122699297829714823e-02 3.864645891440285976e-06 -1.303010819982163069e-04 -2.123599801498724654e-02 1.248411898286441431e-04 -7.929299615796798920e-05 -2.065899381136657512e-02 -5.136092736098951825e-06 -5.013009189581009006e-04 -2.122499312153488388e-02 -1.211575883421230862e-04 -7.929322887477452137e-05 -2.068900382866805873e-02