9.319888229166435778e+00 -8.078894419838388689e-17 0.000000000000000000e+00 7.792859391831195026e-01 1.610481223750881696e+01 0.000000000000000000e+00 0.000000000000000000e+00 0.000000000000000000e+00 2.165506828999999911e+01
9.319888229166435778e+00 -8.078894419838388689e-17 0.000000000000000000e+00 7.792859391831195026e-01 1.610481223750881696e+01 0.000000000000000000e+00 0.000000000000000000e+00 0.000000000000000000e+00 2.165506828999999911e+01
9.319888229166435778e+00 -8.078894419838388689e-17 0.000000000000000000e+00 7.792859391831195026e-01 1.610481223750881696e+01 0.000000000000000000e+00 0.000000000000000000e+00 0.000000000000000000e+00 2.165506828999999911e+01
9.319888229166435778e+00 -8.078894419838388689e-17 0.000000000000000000e+00 7.792859391831195026e-01 1.610481223750881696e+01 0.000000000000000000e+00 0.000000000000000000e+00 0.000000000000000000e+00 2.165506828999999911e+01
9.319888229166435778e+00 -8.078894419838388689e-17 0.000000000000000000e+00 7.792859391831195026e-01 1.610481223750881696e+01 0.000000000000000000e+00 0.000000000000000000e+00 0.000000000000000000e+00 2.165506828999999911e+01
