9.314033494908926514e+00 1.758255628507205445e-04 4.876310000000000144e+00 1.677337805337797638e+00 2.684308237513825190e+00 4.876299999999999635e+00 1.792896982944021667e-01 3.578596784339568515e+00 2.313829999999999831e+00 1.602714090867575658e+00 8.944632074236037456e-01 2.313820000000000210e+00 3.100772186224308058e+00 1.741772794570211323e-04 4.876310000000000144e+00 4.783968459680107088e+00 2.684309061655521855e+00 4.876299999999999635e+00 3.285910364323374022e+00 3.578598091799668701e+00 2.313829999999999831e+00 4.709344745209884664e+00 8.944640315653006324e-01 2.313820000000000210e+00 6.207402840566617286e+00 1.750014211538708248e-04 4.876310000000000144e+00 7.890599114022415428e+00 2.684309885797218964e+00 4.876299999999999635e+00 6.392541018665682806e+00 3.578598915941365810e+00 2.313829999999999831e+00 7.815975399552193004e+00 8.944648557069975192e-01 2.313820000000000210e+00 9.573795387478215346e+00 5.368444770173284475e+00 4.876310000000000144e+00 1.937100181225488882e+00 8.052587170437595532e+00 4.876299999999999635e+00 4.390515908636898890e-01 8.946865728950001539e+00 2.313829999999999831e+00 1.862475983436863380e+00 6.262732152034037547e+00 2.313820000000000210e+00 3.360534078793596002e+00 5.368443121889890257e+00 4.876310000000000144e+00 5.043730352249394144e+00 8.052578006265955324e+00 4.876299999999999635e+00 3.545672256892661522e+00 8.946867036410102614e+00 2.313829999999999831e+00 4.969106637779171720e+00 6.262732976175734656e+00 2.313820000000000210e+00 6.467164733135904342e+00 5.368443946031587366e+00 4.876310000000000144e+00 8.150361006591703372e+00 8.052578830407652433e+00 4.876299999999999635e+00 6.652302911234969862e+00 8.946867860551799723e+00 2.313829999999999831e+00 8.075737292121480948e+00 6.262733800317431765e+00 2.313820000000000210e+00 9.833557280047502402e+00 1.073671371478371661e+01 4.876310000000000144e+00 2.196862073794776826e+00 1.342085611504803033e+01 4.876299999999999635e+00 6.988134834329775558e-01 1.431513467356043456e+01 2.313829999999999831e+00 2.122237876006150881e+00 1.163100109664447146e+01 2.313820000000000210e+00 3.620295971362883503e+00 1.073671206650032417e+01 4.876310000000000144e+00 5.303492728137086054e+00 1.342085693918972744e+01 4.876299999999999635e+00 3.805434149461949467e+00 1.431513598102053564e+01 2.313829999999999831e+00 5.228868530348459664e+00 1.163100192078616679e+01 2.313820000000000210e+00 6.726926625705192286e+00 1.073671289064201950e+01 4.876310000000000144e+00 8.410123382479394394e+00 1.342085776333142455e+01 4.876299999999999635e+00 6.912064803804257807e+00 1.431513680516223275e+01 2.313829999999999831e+00 8.335499184690768004e+00 1.163100274492786390e+01 2.313820000000000210e+00 9.314033494908926514e+00 1.758255628507205445e-04 1.209467000000000070e+01 1.677337805337797638e+00 2.684308237513825190e+00 1.209465999999999930e+01 1.792896982944021667e-01 3.578596784339568515e+00 9.532189999999999941e+00 1.602714090867575658e+00 8.944632074236037456e-01 9.532180000000000319e+00 3.100772186224308058e+00 1.741772794570211323e-04 1.209467000000000070e+01 4.783968459680107088e+00 2.684309061655521855e+00 1.209465999999999930e+01 3.285910364323374022e+00 3.578598091799668701e+00 9.532189999999999941e+00 4.709344745209884664e+00 8.944640315653006324e-01 9.532180000000000319e+00 6.207402840566617286e+00 1.750014211538708248e-04 1.209467000000000070e+01 7.890599114022415428e+00 2.684309885797218964e+00 1.209465999999999930e+01 6.392541018665682806e+00 3.578598915941365810e+00 9.532189999999999941e+00 7.815975399552193004e+00 8.944648557069975192e-01 9.532180000000000319e+00 9.573795387478215346e+00 5.368444770173284475e+00 1.209467000000000070e+01 1.937100181225488882e+00 8.052587170437595532e+00 1.209465999999999930e+01 4.390515908636898890e-01 8.946865728950001539e+00 9.532189999999999941e+00 1.862475983436863380e+00 6.262732152034037547e+00 9.532180000000000319e+00 3.360534078793596002e+00 5.368443121889890257e+00 1.209467000000000070e+01 5.043730352249394144e+00 8.052578006265955324e+00 1.209465999999999930e+01 3.545672256892661522e+00 8.946867036410102614e+00 9.532189999999999941e+00 4.969106637779171720e+00 6.262732976175734656e+00 9.532180000000000319e+00 6.467164733135904342e+00 5.368443946031587366e+00 1.209467000000000070e+01 8.150361006591703372e+00 8.052578830407652433e+00 1.209465999999999930e+01 6.652302911234969862e+00 8.946867860551799723e+00 9.532189999999999941e+00 8.075737292121480948e+00 6.262733800317431765e+00 9.532180000000000319e+00 9.833557280047502402e+00 1.073671371478371661e+01 1.209467000000000070e+01 2.196862073794776826e+00 1.342085611504803033e+01 1.209465999999999930e+01 6.988134834329775558e-01 1.431513467356043456e+01 9.532189999999999941e+00 2.122237876006150881e+00 1.163100109664447146e+01 9.532180000000000319e+00 3.620295971362883503e+00 1.073671206650032417e+01 1.209467000000000070e+01 5.303492728137086054e+00 1.342085693918972744e+01 1.209465999999999930e+01 3.805434149461949467e+00 1.431513598102053564e+01 9.532189999999999941e+00 5.228868530348459664e+00 1.163100192078616679e+01 9.532180000000000319e+00 6.726926625705192286e+00 1.073671289064201950e+01 1.209467000000000070e+01 8.410123382479394394e+00 1.342085776333142455e+01 1.209465999999999930e+01 6.912064803804257807e+00 1.431513680516223275e+01 9.532189999999999941e+00 8.335499184690768004e+00 1.163100274492786390e+01 9.532180000000000319e+00 9.314033494908926514e+00 1.758255628507205445e-04 1.931302000000000163e+01 1.677337805337797638e+00 2.684308237513825190e+00 1.931302000000000163e+01 1.792896982944021667e-01 3.578596784339568515e+00 1.675054000000000087e+01 1.602714090867575658e+00 8.944632074236037456e-01 1.675053000000000125e+01 3.100772186224308058e+00 1.741772794570211323e-04 1.931302000000000163e+01 4.783968459680107088e+00 2.684309061655521855e+00 1.931302000000000163e+01 3.285910364323374022e+00 3.578598091799668701e+00 1.675054000000000087e+01 4.709344745209884664e+00 8.944640315653006324e-01 1.675053000000000125e+01 6.207402840566617286e+00 1.750014211538708248e-04 1.931302000000000163e+01 7.890599114022415428e+00 2.684309885797218964e+00 1.931302000000000163e+01 6.392541018665682806e+00 3.578598915941365810e+00 1.675054000000000087e+01 7.815975399552193004e+00 8.944648557069975192e-01 1.675053000000000125e+01 9.573795387478215346e+00 5.368444770173284475e+00 1.931302000000000163e+01 1.937100181225488882e+00 8.052587170437595532e+00 1.931302000000000163e+01 4.390515908636898890e-01 8.946865728950001539e+00 1.675054000000000087e+01 1.862475983436863380e+00 6.262732152034037547e+00 1.675053000000000125e+01 3.360534078793596002e+00 5.368443121889890257e+00 1.931302000000000163e+01 5.043730352249394144e+00 8.052578006265955324e+00 1.931302000000000163e+01 3.545672256892661522e+00 8.946867036410102614e+00 1.675054000000000087e+01 4.969106637779171720e+00 6.262732976175734656e+00 1.675053000000000125e+01 6.467164733135904342e+00 5.368443946031587366e+00 1.931302000000000163e+01 8.150361006591703372e+00 8.052578830407652433e+00 1.931302000000000163e+01 6.652302911234969862e+00 8.946867860551799723e+00 1.675054000000000087e+01 8.075737292121480948e+00 6.262733800317431765e+00 1.675053000000000125e+01 9.833557280047502402e+00 1.073671371478371661e+01 1.931302000000000163e+01 2.196862073794776826e+00 1.342085611504803033e+01 1.931302000000000163e+01 6.988134834329775558e-01 1.431513467356043456e+01 1.675054000000000087e+01 2.122237876006150881e+00 1.163100109664447146e+01 1.675053000000000125e+01 3.620295971362883503e+00 1.073671206650032417e+01 1.931302000000000163e+01 5.303492728137086054e+00 1.342085693918972744e+01 1.931302000000000163e+01 3.805434149461949467e+00 1.431513598102053564e+01 1.675054000000000087e+01 5.228868530348459664e+00 1.163100192078616679e+01 1.675053000000000125e+01 6.726926625705192286e+00 1.073671289064201950e+01 1.931302000000000163e+01 8.410123382479394394e+00 1.342085776333142455e+01 1.931302000000000163e+01 6.912064803804257807e+00 1.431513680516223275e+01 1.675054000000000087e+01 8.335499184690768004e+00 1.163100274492786390e+01 1.675053000000000125e+01 8.669539680232478396e-02 1.789381041218802926e+00 3.595040000000000013e+00 9.469800070602831354e+00 3.579690598530912204e+00 5.926289999999999836e+00 1.706718429419487038e+00 2.683196919120898194e+00 1.263810000000000100e+00 2.832935535279100803e-01 5.367320507723525758e+00 1.263819999999999943e+00 1.769901175253056680e+00 4.473505453963127820e+00 3.595070000000000210e+00 1.573342971780819832e+00 8.955640541847904590e-01 5.926280000000000214e+00 3.193326051144633304e+00 1.789381865360499813e+00 3.595040000000000013e+00 3.256538761918214675e+00 3.579688950247518431e+00 5.926289999999999836e+00 4.813348600443392300e+00 2.683187754949257986e+00 1.263810000000000100e+00 3.389924207870218975e+00 5.367321331865222866e+00 1.263819999999999943e+00 4.876531829595366574e+00 4.473506278104824041e+00 3.595070000000000210e+00 4.679973626123128838e+00 8.955648783264874568e-01 5.926280000000000214e+00 6.299956705486941644e+00 1.789382689502196699e+00 3.595040000000000013e+00 6.363169416260523903e+00 3.579689774389215540e+00 5.926289999999999836e+00 7.919979254785701528e+00 2.683188579090954651e+00 1.263810000000000100e+00 6.496544873899191330e+00 5.367322639325323053e+00 1.263819999999999943e+00 7.983162483937674914e+00 4.473507102246521150e+00 3.595070000000000210e+00 7.786604280465437178e+00 8.955657024681842326e-01 5.926280000000000214e+00 3.464577726900159860e-01 7.157659974142573489e+00 3.595040000000000013e+00 9.729561963172118411e+00 8.947959543141346117e+00 5.926289999999999836e+00 1.966480321988774760e+00 8.051465863731332107e+00 1.263810000000000100e+00 5.430554460971978026e-01 1.073558945233395967e+01 1.263819999999999943e+00 2.029663067822344402e+00 9.841774398573560845e+00 3.595070000000000210e+00 1.833104864350107555e+00 6.263832998795224150e+00 5.926280000000000214e+00 3.453087943713921248e+00 7.157650809970933281e+00 3.595040000000000013e+00 3.516301137805906141e+00 8.947967883171289216e+00 5.926289999999999836e+00 5.073110976331083322e+00 8.051466687873029215e+00 1.263810000000000100e+00 3.649686100439506919e+00 1.073559027647565678e+01 1.263819999999999943e+00 5.136293722164653630e+00 9.841775222715257954e+00 3.595070000000000210e+00 4.939735518692416782e+00 6.263833822936921258e+00 5.926280000000000214e+00 6.559718598056229588e+00 7.157651634112630390e+00 3.595040000000000013e+00 6.622931792148214925e+00 8.947968707312986325e+00 5.926289999999999836e+00 8.179741630673392550e+00 8.051467512014726324e+00 1.263810000000000100e+00 6.756306766468479275e+00 1.073559158393575608e+01 1.263819999999999943e+00 8.242924376506962858e+00 9.841776046856953286e+00 3.595070000000000210e+00 8.046366173034725122e+00 6.263834647078617479e+00 5.926280000000000214e+00 6.062196652593037083e-01 1.252592891875300651e+01 3.595040000000000013e+00 9.989324339059809432e+00 1.431623847606511823e+01 5.926289999999999836e+00 2.226242214558062482e+00 1.341973480834176513e+01 1.263810000000000100e+00 8.028173386664855249e-01 1.610385839694439269e+01 1.263819999999999943e+00 2.289424960391631902e+00 1.521004334318399565e+01 3.595070000000000210e+00 2.092867240237799020e+00 1.163211193171899538e+01 5.926280000000000214e+00 3.712850319601612270e+00 1.252592974289470362e+01 3.595040000000000013e+00 3.776063030375193641e+00 1.431623682778172402e+01 5.926289999999999836e+00 5.332872868900371266e+00 1.341973563248346224e+01 1.263810000000000100e+00 3.909447993008794420e+00 1.610385922108608980e+01 1.263819999999999943e+00 5.396055614733941574e+00 1.521004416732569275e+01 3.595070000000000210e+00 5.199497894580107804e+00 1.163211275586069249e+01 5.926280000000000214e+00 6.819480973943920610e+00 1.252593056703640073e+01 3.595040000000000013e+00 6.882693684717502869e+00 1.431623765192342113e+01 5.926289999999999836e+00 8.439503523242679606e+00 1.341973645662515935e+01 1.263810000000000100e+00 7.016068659037766331e+00 1.610386052854619265e+01 1.263819999999999943e+00 8.502686269076249914e+00 1.521004499146738809e+01 3.595070000000000210e+00 8.306128065604012178e+00 1.163210359168905050e+01 5.926280000000000214e+00 8.669539680232478396e-02 1.789381041218802926e+00 1.081339999999999968e+01 9.469800070602831354e+00 3.579690598530912204e+00 1.314465000000000039e+01 1.706718429419487038e+00 2.683196919120898194e+00 8.482160000000000366e+00 2.832935535279100803e-01 5.367320507723525758e+00 8.482179999999999609e+00 1.769901175253056680e+00 4.473505453963127820e+00 1.081342000000000070e+01 1.573342971780819832e+00 8.955640541847904590e-01 1.314464000000000077e+01 3.193326051144633304e+00 1.789381865360499813e+00 1.081339999999999968e+01 3.256538761918214675e+00 3.579688950247518431e+00 1.314465000000000039e+01 4.813348600443392300e+00 2.683187754949257986e+00 8.482160000000000366e+00 3.389924207870218975e+00 5.367321331865222866e+00 8.482179999999999609e+00 4.876531829595366574e+00 4.473506278104824041e+00 1.081342000000000070e+01 4.679973626123128838e+00 8.955648783264874568e-01 1.314464000000000077e+01 6.299956705486941644e+00 1.789382689502196699e+00 1.081339999999999968e+01 6.363169416260523903e+00 3.579689774389215540e+00 1.314465000000000039e+01 7.919979254785701528e+00 2.683188579090954651e+00 8.482160000000000366e+00 6.496544873899191330e+00 5.367322639325323053e+00 8.482179999999999609e+00 7.983162483937674914e+00 4.473507102246521150e+00 1.081342000000000070e+01 7.786604280465437178e+00 8.955657024681842326e-01 1.314464000000000077e+01 3.464577726900159860e-01 7.157659974142573489e+00 1.081339999999999968e+01 9.729561963172118411e+00 8.947959543141346117e+00 1.314465000000000039e+01 1.966480321988774760e+00 8.051465863731332107e+00 8.482160000000000366e+00 5.430554460971978026e-01 1.073558945233395967e+01 8.482179999999999609e+00 2.029663067822344402e+00 9.841774398573560845e+00 1.081342000000000070e+01 1.833104864350107555e+00 6.263832998795224150e+00 1.314464000000000077e+01 3.453087943713921248e+00 7.157650809970933281e+00 1.081339999999999968e+01 3.516301137805906141e+00 8.947967883171289216e+00 1.314465000000000039e+01 5.073110976331083322e+00 8.051466687873029215e+00 8.482160000000000366e+00 3.649686100439506919e+00 1.073559027647565678e+01 8.482179999999999609e+00 5.136293722164653630e+00 9.841775222715257954e+00 1.081342000000000070e+01 4.939735518692416782e+00 6.263833822936921258e+00 1.314464000000000077e+01 6.559718598056229588e+00 7.157651634112630390e+00 1.081339999999999968e+01 6.622931792148214925e+00 8.947968707312986325e+00 1.314465000000000039e+01 8.179741630673392550e+00 8.051467512014726324e+00 8.482160000000000366e+00 6.756306766468479275e+00 1.073559158393575608e+01 8.482179999999999609e+00 8.242924376506962858e+00 9.841776046856953286e+00 1.081342000000000070e+01 8.046366173034725122e+00 6.263834647078617479e+00 1.314464000000000077e+01 6.062196652593037083e-01 1.252592891875300651e+01 1.081339999999999968e+01 9.989324339059809432e+00 1.431623847606511823e+01 1.314465000000000039e+01 2.226242214558062482e+00 1.341973480834176513e+01 8.482160000000000366e+00 8.028173386664855249e-01 1.610385839694439269e+01 8.482179999999999609e+00 2.289424960391631902e+00 1.521004334318399565e+01 1.081342000000000070e+01 2.092867240237799020e+00 1.163211193171899538e+01 1.314464000000000077e+01 3.712850319601612270e+00 1.252592974289470362e+01 1.081339999999999968e+01 3.776063030375193641e+00 1.431623682778172402e+01 1.314465000000000039e+01 5.332872868900371266e+00 1.341973563248346224e+01 8.482160000000000366e+00 3.909447993008794420e+00 1.610385922108608980e+01 8.482179999999999609e+00 5.396055614733941574e+00 1.521004416732569275e+01 1.081342000000000070e+01 5.199497894580107804e+00 1.163211275586069249e+01 1.314464000000000077e+01 6.819480973943920610e+00 1.252593056703640073e+01 1.081339999999999968e+01 6.882693684717502869e+00 1.431623765192342113e+01 1.314465000000000039e+01 8.439503523242679606e+00 1.341973645662515935e+01 8.482160000000000366e+00 7.016068659037766331e+00 1.610386052854619265e+01 8.482179999999999609e+00 8.502686269076249914e+00 1.521004499146738809e+01 1.081342000000000070e+01 8.306128065604012178e+00 1.163210359168905050e+01 1.314464000000000077e+01 8.669539680232478396e-02 1.789381041218802926e+00 1.803175999999999846e+01 9.469800070602831354e+00 3.579690598530912204e+00 2.036299999999999955e+01 1.706718429419487038e+00 2.683196919120898194e+00 1.570051999999999914e+01 2.832935535279100803e-01 5.367320507723525758e+00 1.570053000000000054e+01 1.769901175253056680e+00 4.473505453963127820e+00 1.803178000000000125e+01 1.573342971780819832e+00 8.955640541847904590e-01 2.036299999999999955e+01 3.193326051144633304e+00 1.789381865360499813e+00 1.803175999999999846e+01 3.256538761918214675e+00 3.579688950247518431e+00 2.036299999999999955e+01 4.813348600443392300e+00 2.683187754949257986e+00 1.570051999999999914e+01 3.389924207870218975e+00 5.367321331865222866e+00 1.570053000000000054e+01 4.876531829595366574e+00 4.473506278104824041e+00 1.803178000000000125e+01 4.679973626123128838e+00 8.955648783264874568e-01 2.036299999999999955e+01 6.299956705486941644e+00 1.789382689502196699e+00 1.803175999999999846e+01 6.363169416260523903e+00 3.579689774389215540e+00 2.036299999999999955e+01 7.919979254785701528e+00 2.683188579090954651e+00 1.570051999999999914e+01 6.496544873899191330e+00 5.367322639325323053e+00 1.570053000000000054e+01 7.983162483937674914e+00 4.473507102246521150e+00 1.803178000000000125e+01 7.786604280465437178e+00 8.955657024681842326e-01 2.036299999999999955e+01 3.464577726900159860e-01 7.157659974142573489e+00 1.803175999999999846e+01 9.729561963172118411e+00 8.947959543141346117e+00 2.036299999999999955e+01 1.966480321988774760e+00 8.051465863731332107e+00 1.570051999999999914e+01 5.430554460971978026e-01 1.073558945233395967e+01 1.570053000000000054e+01 2.029663067822344402e+00 9.841774398573560845e+00 1.803178000000000125e+01 1.833104864350107555e+00 6.263832998795224150e+00 2.036299999999999955e+01 3.453087943713921248e+00 7.157650809970933281e+00 1.803175999999999846e+01 3.516301137805906141e+00 8.947967883171289216e+00 2.036299999999999955e+01 5.073110976331083322e+00 8.051466687873029215e+00 1.570051999999999914e+01 3.649686100439506919e+00 1.073559027647565678e+01 1.570053000000000054e+01 5.136293722164653630e+00 9.841775222715257954e+00 1.803178000000000125e+01 4.939735518692416782e+00 6.263833822936921258e+00 2.036299999999999955e+01 6.559718598056229588e+00 7.157651634112630390e+00 1.803175999999999846e+01 6.622931792148214925e+00 8.947968707312986325e+00 2.036299999999999955e+01 8.179741630673392550e+00 8.051467512014726324e+00 1.570051999999999914e+01 6.756306766468479275e+00 1.073559158393575608e+01 1.570053000000000054e+01 8.242924376506962858e+00 9.841776046856953286e+00 1.803178000000000125e+01 8.046366173034725122e+00 6.263834647078617479e+00 2.036299999999999955e+01 6.062196652593037083e-01 1.252592891875300651e+01 1.803175999999999846e+01 9.989324339059809432e+00 1.431623847606511823e+01 2.036299999999999955e+01 2.226242214558062482e+00 1.341973480834176513e+01 1.570051999999999914e+01 8.028173386664855249e-01 1.610385839694439269e+01 1.570053000000000054e+01 2.289424960391631902e+00 1.521004334318399565e+01 1.803178000000000125e+01 2.092867240237799020e+00 1.163211193171899538e+01 2.036299999999999955e+01 3.712850319601612270e+00 1.252592974289470362e+01 1.803175999999999846e+01 3.776063030375193641e+00 1.431623682778172402e+01 2.036299999999999955e+01 5.332872868900371266e+00 1.341973563248346224e+01 1.570051999999999914e+01 3.909447993008794420e+00 1.610385922108608980e+01 1.570053000000000054e+01 5.396055614733941574e+00 1.521004416732569275e+01 1.803178000000000125e+01 5.199497894580107804e+00 1.163211275586069249e+01 2.036299999999999955e+01 6.819480973943920610e+00 1.252593056703640073e+01 1.803175999999999846e+01 6.882693684717502869e+00 1.431623765192342113e+01 2.036299999999999955e+01 8.439503523242679606e+00 1.341973645662515935e+01 1.570051999999999914e+01 7.016068659037766331e+00 1.610386052854619265e+01 1.570053000000000054e+01 8.502686269076249914e+00 1.521004499146738809e+01 1.803178000000000125e+01 8.306128065604012178e+00 1.163210359168905050e+01 2.036299999999999955e+01