-2.822726430470000196e+03
-2.822689987600000222e+03
-2.822580548599999929e+03
-2.822398680320000040e+03
-2.822145462219999899e+03
