-6.985630217105402717e-03 2.514567054159410134e-03 3.266999999999999939e-03 -6.757976398378247665e-03 3.143298903852857241e-03 1.763000000000000027e-03 6.373538655288440470e-03 -3.474104922068994936e-03 -3.139999999999999996e-03 6.485408165168094277e-03 -3.169155397132021167e-03 -2.286999999999999970e-03 -6.842345812003750374e-03 2.848031563897201503e-03 2.863999999999999792e-03 -7.193934361370192369e-03 2.927116909912764499e-03 2.209000000000000026e-03 7.786676088523296520e-03 -3.133005823872585510e-03 -2.520999999999999804e-03 6.752628983024699071e-03 -2.239984780665891292e-03 -3.266999999999999939e-03 -7.220048811366313289e-03 3.049522120183406886e-03 2.501999999999999884e-03 -6.524250426994487179e-03 2.697481485731136139e-03 2.831000000000000183e-03 6.016247429364819481e-03 -3.140446444163823205e-03 -2.781000000000000052e-03 7.869338311127967167e-03 -2.459213602966128873e-03 -3.053000000000000158e-03 -6.965991833212855852e-03 2.568681136227656935e-03 2.821999999999999856e-03 -7.257875864243054295e-03 2.785041281424413973e-03 2.222000000000000017e-03 6.791566787121353956e-03 -2.635328741555811264e-03 -2.971000000000000116e-03 7.388319576419282927e-03 -3.130749884085217739e-03 -2.527000000000000166e-03 -6.271964468209947907e-03 3.069723067234553324e-03 2.314999999999999784e-03 -6.965863455609971715e-03 2.178218611112644858e-03 3.000000000000000062e-03 7.751652762991506282e-03 -2.967119216008375950e-03 -2.746999999999999876e-03 6.944032639875158223e-03 -3.353537042638481906e-03 -2.880000000000000181e-03 -6.784703345388241880e-03 3.025452943788352247e-03 2.830000000000000050e-03 -6.762777948592117380e-03 2.588883044487756083e-03 2.687999999999999851e-03 6.474919995609998077e-03 -3.510046872970476895e-03 -2.070999999999999924e-03 7.165854122830313776e-03 -3.072930147321250444e-03 -2.724999999999999992e-03 -7.256055311522594149e-03 2.864045620468494684e-03 2.364999999999999915e-03 -6.753626933250206701e-03 2.922831032830569727e-03 3.082999999999999803e-03 6.934576457386380961e-03 -2.969631350296287990e-03 -3.070999999999999945e-03 5.996415638010114957e-03 -3.260628389778226846e-03 -2.397999999999999958e-03 -6.471892188190410226e-03 2.807078998610467932e-03 2.994999999999999832e-03 -6.970519049093831104e-03 2.371669704284312154e-03 3.201999999999999985e-03 7.248709272292665727e-03 -2.705505292136450423e-03 -2.905000000000000030e-03 6.469845312574423919e-03 -3.490779086587800575e-03 -2.903999999999999897e-03 -6.797752301477587474e-03 3.252348789376097865e-03 1.964000000000000034e-03 -6.359781259411229591e-03 2.930805065582102551e-03 2.684000000000000188e-03 7.274791447661387196e-03 -2.869958082103769674e-03 -2.694000000000000214e-03 7.681830832808529338e-03 -3.272101015572748735e-03 -2.301000000000000094e-03 -7.061428997976960421e-03 2.230899035485493179e-03 2.991999999999999868e-03 -6.938185127998411708e-03 2.977815328327408639e-03 1.752000000000000085e-03 6.403423149033588523e-03 -3.394456211887371486e-03 -2.841999999999999908e-03 6.398815566987098302e-03 -3.448296440227200180e-03 -1.892000000000000019e-03 -6.819211878896562669e-03 2.622650062573352123e-03 2.614000000000000004e-03 -7.206001184144746399e-03 2.698432866332702799e-03 2.219000000000000052e-03 7.612331648899546901e-03 -3.156607018170349849e-03 -2.286999999999999970e-03 6.713110075433364847e-03 -2.725642330738767011e-03 -2.759999999999999867e-03 -7.211124038819181556e-03 2.840846897804270334e-03 2.250999999999999963e-03 -6.383270293520555867e-03 2.631590652031199490e-03 2.959999999999999958e-03 6.124266369128440225e-03 -3.018524712498203092e-03 -2.396999999999999825e-03 7.916218273852484999e-03 -2.980088126335191101e-03 -2.606999999999999942e-03 -7.045979106579188141e-03 2.405356196002902264e-03 2.706000000000000072e-03 -7.365813156229223703e-03 3.513108957536114664e-03 2.396999999999999825e-03 6.765919998819539677e-03 -2.151523778528558264e-03 -2.475000000000000203e-03 7.241346454943070263e-03 -3.064569059343163256e-03 -2.495999999999999955e-03 -6.253469991272919866e-03 3.058816448930710107e-03 2.284000000000000006e-03 -7.039760196185111500e-03 2.699399262837525078e-03 3.187000000000000163e-03 7.787756407432967418e-03 -2.407209824358222741e-03 -2.436999999999999930e-03 6.957356010398143761e-03 -3.160955922593168977e-03 -2.903999999999999897e-03 -6.775134041502074711e-03 2.912858856807133429e-03 2.701999999999999975e-03 -6.562028106721177166e-03 3.240942475052786733e-03 2.752000000000000106e-03 6.482041313959321233e-03 -3.031832186009727516e-03 -1.771999999999999921e-03 7.270087121833444972e-03 -2.987868511322327655e-03 -2.684999999999999887e-03 -7.139804622592721764e-03 2.556067086600742177e-03 2.174999999999999850e-03 -6.810157527235357645e-03 2.954600388248739083e-03 2.915000000000000056e-03 6.828264948945832191e-03 -3.283860348278802490e-03 -2.824999999999999820e-03 6.053478042440641436e-03 -3.157265524102941413e-03 -2.125999999999999852e-03 -6.661895983887044029e-03 2.584001528612101840e-03 2.697000000000000178e-03 -7.037553389245556137e-03 2.476031561494802975e-03 2.809999999999999998e-03 7.339086850025197672e-03 -3.134374611910201430e-03 -2.638000000000000154e-03 6.465560316600435509e-03 -3.248288594383461070e-03 -2.844000000000000174e-03 -6.712030317228914050e-03 3.016930562774014155e-03 1.595999999999999979e-03 -6.164847856300827329e-03 3.069545716985349476e-03 2.308999999999999855e-03 7.278222447621229135e-03 -3.233548824889220016e-03 -2.566999999999999837e-03 7.707236843016785841e-03 -3.078102214944245223e-03 -2.102999999999999835e-03 -6.898345316450240315e-03 2.456280296507103948e-03 3.305999999999999911e-03 -6.749244873091781761e-03 2.992700894350168624e-03 2.026000000000000023e-03 6.360425230045043191e-03 -3.269231697663301309e-03 -2.941000000000000038e-03 6.483474731352480668e-03 -3.333253726903169598e-03 -1.574000000000000095e-03 -6.714253742086645493e-03 2.846839245000583937e-03 2.988999999999999903e-03 -7.195561827031479382e-03 2.665890281569631079e-03 2.614000000000000004e-03 7.536163071525579099e-03 -2.868589053763916010e-03 -2.151000000000000134e-03 6.728366559368978601e-03 -2.617253033767514333e-03 -2.304000000000000058e-03 -7.344789927086107541e-03 3.078585052743299313e-03 2.586999999999999890e-03 -6.539812959185173878e-03 2.624147949120565846e-03 3.075000000000000042e-03 6.315848737940785509e-03 -2.969727212969534066e-03 -2.288999999999999802e-03 7.895710557639552818e-03 -2.555600866719864167e-03 -2.350000000000000092e-03 -6.993218316040825284e-03 2.357750534766374449e-03 2.755000000000000070e-03 -7.327664959093409085e-03 2.956614829035834110e-03 2.239000000000000105e-03 6.745137707971473988e-03 -2.270658560968895085e-03 -3.082999999999999803e-03 7.337411372926541490e-03 -3.148309918741838860e-03 -2.596999999999999916e-03 -6.230142650703573634e-03 2.899502811153018000e-03 2.400999999999999922e-03 -6.919240488393458600e-03 2.252051523339699407e-03 3.001000000000000195e-03 7.844947269567123516e-03 -2.632236945586646781e-03 -2.899000000000000101e-03 6.933609580277082761e-03 -3.175825591604466980e-03 -2.926999999999999914e-03 -6.816940042097733785e-03 2.855812749891798504e-03 2.856000000000000032e-03 -6.746135898499218929e-03 2.767287198499666576e-03 2.605999999999999810e-03 6.439639033764235805e-03 -3.246033135200568787e-03 -2.160000000000000028e-03 7.265833999983126006e-03 -3.013693130477822137e-03 -2.652999999999999976e-03 -7.227524109307330476e-03 2.915727053306137184e-03 2.092999999999999809e-03 -6.719376436559587953e-03 3.113398352894755812e-03 2.735000000000000018e-03 7.043077834445324488e-03 -3.520519225617857462e-03 -2.778000000000000087e-03 5.968770866637889035e-03 -3.025016915915476872e-03 -2.559000000000000077e-03 -6.556905572449725668e-03 2.850238290736010517e-03 2.641000000000000118e-03 -6.970583037643407302e-03 2.722082312370073618e-03 2.766999999999999928e-03 7.138208870853612366e-03 -3.209753902726313925e-03 -2.576000000000000165e-03 6.417294066811919315e-03 -3.356081771956777489e-03 -2.955999999999999860e-03 -6.660364701301986316e-03 3.215665723555621597e-03 1.629999999999999939e-03 -6.237150286950285047e-03 3.127107497032359344e-03 2.351999999999999924e-03 7.243424323574519652e-03 -3.331982003049990208e-03 -2.321000000000000146e-03 7.827096522961670896e-03 -3.145974573997908832e-03 -2.389000000000000064e-03 2.593582243867952834e-04 2.908045932287328227e-04 1.289999999999999914e-04 8.158674569011519634e-03 -4.507591627129134242e-03 -4.055999999999999710e-03 -8.107217296349262733e-03 5.550323207685781135e-03 3.127000000000000005e-03 -8.644122814610775279e-03 4.447984573481058093e-03 3.640000000000000006e-03 -1.103874402431557177e-04 -3.570820816514932864e-04 -6.299999999999999990e-05 8.471759259534788339e-03 -4.989286526998285183e-03 -3.983000000000000429e-03 4.509889250394936663e-04 3.406009240911157332e-04 2.199999999999999943e-05 8.123908238987733246e-03 -4.936412454861041459e-03 -4.203000000000000139e-03 -8.205344746657943639e-03 5.301775418526598685e-03 3.053999999999999857e-03 -8.778723225258855400e-03 4.583648605019887551e-03 3.752999999999999826e-03 3.624751855207760027e-05 -3.061096493069383412e-04 9.200000000000000007e-05 8.088513915442342023e-03 -5.129927937086014959e-03 -4.317999999999999790e-03 4.135535732325755726e-05 3.994680643313876472e-04 -1.350000000000000017e-04 8.493750407096899158e-03 -4.410673193735992897e-03 -4.565999999999999746e-03 -9.234785872124973496e-03 5.007185925847076023e-03 3.285000000000000159e-03 -8.617943975561348155e-03 4.285529446181166394e-03 3.615999999999999857e-03 -1.136093760316158821e-04 -2.788349147393613453e-04 7.600000000000000418e-05 8.335547200136135537e-03 -5.342115486799458961e-03 -3.565000000000000027e-03 3.296031260210451703e-05 -8.706104856898815025e-04 1.345999999999999974e-03 7.985102798027452278e-03 -5.011791825777899868e-03 -3.322999999999999999e-03 -8.323740016194205310e-03 4.117113205002661917e-03 3.579999999999999849e-03 -8.381864759903545625e-03 4.736646508521304665e-03 3.256999999999999913e-03 -1.168793232574449718e-04 4.670357368426621928e-05 9.730000000000000151e-04 8.418337479940706664e-03 -5.307075943853222649e-03 -3.738000000000000003e-03 2.885325161276650562e-04 -6.787385263391482832e-04 7.100000000000000191e-04 8.397394216459373728e-03 -5.326085933720434672e-03 -2.582000000000000094e-03 -8.288072720028603207e-03 3.612799965057253166e-03 3.661000000000000192e-03 -9.195735507336148806e-03 4.448645802839015090e-03 3.310000000000000008e-03 2.672034790317149395e-04 -2.294124655174357955e-05 1.253999999999999906e-03 8.002968480435414603e-03 -5.408118480687834108e-03 -3.676000000000000014e-03 -1.506476229549777327e-04 -1.002890968001015921e-03 1.103000000000000031e-03 8.559753000481543431e-03 -5.053614604493225984e-03 -3.057999999999999954e-03 -8.804065647421263976e-03 3.728874505249110422e-03 3.700000000000000164e-03 -8.044661840238158390e-03 5.249948749865659958e-03 3.373000000000000130e-03 4.227473934633643304e-04 4.662232641054566865e-05 1.146000000000000100e-03 8.143675320886150509e-03 -5.024470745062596319e-03 -3.216999999999999808e-03 4.417426077295587614e-05 1.059888422673013709e-04 1.727000000000000019e-03 7.639136158548944303e-03 -5.354471099104940804e-03 -2.991999999999999868e-03 -8.531880945004840372e-03 6.167569338099355286e-03 3.008999999999999956e-03 -8.297413378097608788e-03 6.130193409099490322e-03 2.687999999999999851e-03 -1.333913136317934798e-04 7.813601969946923007e-04 7.290000000000000473e-04 8.500129569217529379e-03 -4.775407763376215281e-03 -2.922000000000000118e-03 1.106449964563823932e-04 1.968824135344930291e-04 1.848000000000000033e-03 8.257542012828753344e-03 -5.092053113074142962e-03 -2.562000000000000041e-03 -8.535907984261872222e-03 6.560222853243206226e-03 3.239999999999999825e-03 -8.810555047312427709e-03 6.056908845135241040e-03 2.729999999999999788e-03 -4.018308275715107331e-07 7.158560180175801155e-04 8.180000000000000422e-04 8.306888261123957645e-03 -4.506754088831672021e-03 -2.526000000000000034e-03 -1.249342027789684148e-04 2.112852218589449734e-04 1.583999999999999905e-03 8.319098557505396480e-03 -5.454451777265213047e-03 -3.014999999999999885e-03 -9.036387111807930861e-03 6.438269407655409365e-03 3.263999999999999974e-03 -8.479103616649047784e-03 6.451350157767678055e-03 2.661999999999999870e-03 1.094859934968623331e-04 9.177809200609941733e-04 2.700000000000000035e-04 8.051106192419556565e-03 -5.034007854422109518e-03 -2.442000000000000160e-03 2.886133628976555120e-04 -4.494745006748505369e-04 -9.719999999999999907e-04 7.749862962984270173e-03 -4.183454201370522332e-03 -3.491000000000000179e-03 -8.163780325163303223e-03 5.415899906984668853e-03 1.938999999999999968e-03 -8.650178669752190894e-03 5.667702707567170810e-03 2.151999999999999833e-03 -1.342293325337324346e-04 5.571386598393156643e-04 -1.413999999999999892e-03 8.271106001243805697e-03 -5.701420833107191319e-03 -4.323999999999999719e-03 4.409512385523062998e-04 -4.668575855859975450e-04 -1.191999999999999917e-03 7.952673895366992735e-03 -4.316411810051074861e-03 -3.627000000000000016e-03 -8.203685727275970840e-03 5.046396782664688135e-03 1.766999999999999908e-03 -8.962957632423367710e-03 5.866051694230429818e-03 2.004999999999999838e-03 3.064004413565166759e-04 6.629658886673821467e-04 -1.219999999999999947e-03 8.063526033576851049e-03 -5.894613889461155706e-03 -4.601000000000000055e-03 2.136848755554357525e-04 -4.668734024967131782e-04 -1.302999999999999905e-03 8.709933362245944610e-03 -4.101760698192308957e-03 -3.954000000000000049e-03 -8.964537967755493650e-03 4.674735824051475669e-03 1.922000000000000097e-03 -8.505058295523093212e-03 5.542542502295660055e-03 1.971000000000000096e-03 2.070224508553539569e-05 5.105961388890620234e-04 -1.116000000000000021e-03 8.410152861103616095e-03 -5.807264920155672493e-03 -3.779999999999999940e-03 5.269768309699214575e-05 9.856048671735590395e-04 2.449999999999999921e-04 7.924142532950238099e-03 -4.492238319311322135e-03 -3.655999999999999962e-03 -8.357424425293399906e-03 5.655539141011163909e-03 2.628999999999999827e-03 -8.401002646769165430e-03 5.520487526385462265e-03 2.703000000000000107e-03 -2.948082060041767370e-05 6.321636506607493855e-04 -4.780000000000000178e-04 8.178716145444322322e-03 -4.114100413486329252e-03 -2.863000000000000093e-03 3.800406670281269062e-04 1.108927901806432267e-03 -3.759999999999999779e-04 8.123022288749170983e-03 -4.851270132293620044e-03 -2.863999999999999792e-03 -8.213190321705848146e-03 5.367231105461865888e-03 2.530999999999999830e-03 -9.063115340429861444e-03 5.327262836210067479e-03 2.831999999999999882e-03 3.304848739570647332e-04 4.365372241694664892e-04 -2.610000000000000015e-04 7.686421156130875294e-03 -4.108300112039491025e-03 -2.864999999999999925e-03 -3.236443350640674679e-05 7.174026369088765641e-04 2.500000000000000120e-05 8.466346974523456317e-03 -4.418357716049882943e-03 -3.275000000000000133e-03 -8.822429263632284094e-03 5.273567282988313176e-03 2.722000000000000027e-03 -8.181226837918805297e-03 6.048482406894895372e-03 2.675999999999999993e-03 5.870557486148468259e-04 5.042157752572422151e-04 -2.660000000000000146e-04 8.054442371015848451e-03 -3.971927881015034460e-03 -2.429000000000000169e-03 1.472782085223318428e-04 -8.461070436383639950e-04 -2.210000000000000050e-04 7.721763623403088243e-03 -6.646975142445532211e-03 -4.302000000000000268e-03 -8.410025524810432751e-03 4.609859398293730467e-03 2.724999999999999992e-03 -8.288571294637624848e-03 4.264585782196103451e-03 2.775000000000000123e-03 -1.247423172309847597e-04 -9.020251406096419693e-04 -3.400000000000000244e-04 8.399053476143582969e-03 -5.395246954948438277e-03 -3.765000000000000117e-03 9.234264536957581863e-05 -7.193037159963437243e-04 -2.959999999999999849e-04 7.919194224998893708e-03 -6.415246513326214317e-03 -3.863000000000000114e-03 -8.329587127567223553e-03 4.803197610370245167e-03 2.707000000000000205e-03 -8.662037870168790357e-03 4.036369400310348826e-03 2.580999999999999961e-03 3.550552252487649608e-05 -1.024913829485306089e-03 -3.890000000000000228e-04 8.005820219217734540e-03 -5.225042355576126757e-03 -3.567999999999999991e-03 2.585585247319565353e-05 -7.691485389005717254e-04 -5.649999999999999641e-04 8.278128893696008739e-03 -6.590799649462519838e-03 -4.508999999999999987e-03 -9.000721017153517911e-03 5.002868094540466326e-03 2.758000000000000035e-03 -8.114532823168200959e-03 4.385315275065851913e-03 2.661999999999999870e-03 2.929951026530959804e-04 -6.278947920004607003e-04 -8.480000000000000124e-04 8.128579008576339651e-03 -5.853710216719996799e-03 -3.517000000000000161e-03 2.479033379208930377e-04 -1.321360474952975000e-04 1.819000000000000087e-03 8.124971219072515266e-03 -5.162728318364550976e-03 -2.458999999999999814e-03 -8.316407230651119351e-03 6.172160462429161255e-03 4.401000000000000398e-03 -8.416193940644012966e-03 5.992773694497983278e-03 4.046000000000000117e-03 -1.416725961495885378e-04 2.791735580248164779e-04 1.023000000000000038e-03 8.692388663895562334e-03 -4.650554086964252959e-03 -2.069000000000000093e-03 4.224410248053084857e-04 -1.666120660739814471e-04 1.953000000000000092e-03 8.443340137407216381e-03 -5.576599351221882966e-03 -2.315999999999999916e-03 -7.925719584151773300e-03 5.845896515795762603e-03 4.434999999999999706e-03 -8.833785323697336545e-03 6.528582836636872416e-03 4.046000000000000117e-03 8.072854848681941585e-05 3.234762765014015861e-04 1.353999999999999952e-03 8.164071357515121849e-03 -4.602963922235457118e-03 -2.334000000000000137e-03 1.934994250120202050e-04 5.654424817572443655e-06 1.845999999999999985e-03 8.502851648785029678e-03 -5.195029724530333612e-03 -2.749000000000000141e-03 -8.894103220155658018e-03 5.468258946796205819e-03 4.392000000000000071e-03 -8.307998131235665162e-03 5.849376808804909213e-03 3.996000000000000420e-03 -1.857484310254258928e-05 1.540778219073592789e-04 1.219000000000000031e-03 8.319727752538192203e-03 -4.758669049602611174e-03 -1.559999999999999972e-03 5.453309151921631947e-05 9.247238468514142593e-05 3.950000000000000061e-04 8.177215935975474040e-03 -5.634805101902705567e-03 -3.572999999999999787e-03 -8.116286663913722943e-03 6.066364627120288296e-03 3.050000000000000194e-03 -8.055730232182728434e-03 4.710853683388733712e-03 2.809999999999999998e-03 -2.501887488095496761e-05 1.864270793090186038e-04 -1.263999999999999933e-03 8.549231835389333248e-03 -5.995206503930079409e-03 -2.782999999999999884e-03 3.408597619162788178e-04 3.819720182243428871e-04 -2.939999999999999905e-04 8.392801810517630523e-03 -6.103772830747551843e-03 -2.922000000000000118e-03 -8.150714510853546840e-03 5.768680695146982500e-03 3.187000000000000163e-03 -9.209219690290910629e-03 4.480334551789431734e-03 3.007000000000000124e-03 2.652219536779874386e-04 -1.820793022698918958e-06 -1.185999999999999988e-03 7.992012569082267148e-03 -6.172482247494203052e-03 -2.645000000000000216e-03 -1.215512142564955500e-04 9.498580058499014672e-05 2.599999999999999772e-04 8.654624958762430209e-03 -5.762027839499425132e-03 -3.374999999999999962e-03 -8.509101872597553060e-03 5.603809536534660844e-03 3.230999999999999931e-03 -8.005594777430414741e-03 5.146940184185053516e-03 2.900999999999999933e-03 5.255304372559051673e-04 1.017190223980603958e-04 -1.139999999999999954e-03 8.231780981719106355e-03 -5.748575290366096310e-03 -2.321000000000000146e-03 2.368192091663533293e-04 -3.818922127640507307e-04 -2.950000000000000148e-04 7.932036920442970054e-03 -4.184259945645062324e-03 -2.694000000000000214e-03 -8.425717796316683703e-03 3.871755237206032756e-03 3.487000000000000082e-03 -8.161896745102217854e-03 4.399621179407359889e-03 4.409999999999999858e-03 -3.653823050090988485e-05 -2.585361825970638994e-04 1.201000000000000028e-03 8.507943510444001753e-03 -4.386330724317741118e-03 -3.957999999999999713e-03 4.863644679465664453e-05 -1.535301144505224935e-04 -2.840000000000000185e-04 8.266919911771412888e-03 -3.718901608318960026e-03 -2.392000000000000029e-03 -8.554131651298830380e-03 4.197342217671504692e-03 3.622999999999999918e-03 -8.844147518674929515e-03 3.935052689344336468e-03 4.609000000000000249e-03 -6.036502678748522326e-05 -1.302346480048461935e-04 1.458000000000000095e-03 8.360422761611698353e-03 -4.228015757672270308e-03 -3.596999999999999937e-03 -8.501370466229985889e-05 -2.051308607196666107e-04 -5.140000000000000254e-04 8.384072768354292743e-03 -4.028926136694492913e-03 -2.812999999999999962e-03 -8.679903953080483556e-03 4.122333364163770913e-03 3.625999999999999883e-03 -8.096457035279159414e-03 4.510588041029529004e-03 4.650999999999999752e-03 1.989125911315576937e-04 1.175235341934957459e-04 8.710000000000000294e-04 8.364401148625393717e-03 -4.869958256995044789e-03 -3.514000000000000196e-03