-1.669127606206770829e-03 1.094786882699051158e-03 1.259419166271327772e-01 2.093847616344189037e-03 1.969051952274024700e-03 3.780057349932089243e-03 -4.317487573478691787e-04 4.018757565330361575e-02 -2.995458738024156520e-02 1.236816036186389259e-02 1.755928743740782852e-02 2.095725470937714885e-02 9.718557119119322759e-04 -6.895054331413105308e-05 3.542040555640326924e-03 -1.334779262493290125e-02 1.761129122593367916e-02 1.980320679579795906e-02 -5.551303266189353816e-04 3.196046682209147810e-03 3.261932084763239335e-03 9.968993928811450272e-04 1.682034706205061663e-03 2.503016749363626541e-03 -4.491466153834421061e-04 8.570516325647073788e-04 3.616969562632199771e-03 -4.211537618425889985e-05 3.404021275447032446e-05 2.833997805045813424e-03 9.087229623595494902e-05 -3.955609685987885378e-06 3.136003759393284854e-03 -5.712805837525164644e-05 1.104463379608928858e-05 3.144997520032501073e-03 5.787370741338408969e-05 3.004393410441532193e-05 3.102001933592846757e-03 -7.126247110423973509e-06 3.604397082076522948e-05 3.100999201671872894e-03 -5.813082428223039698e-05 -3.695441550378626320e-05 3.211998159782013338e-03 5.687572156611905009e-05 1.060432543455723688e-04 3.054000815406592365e-03 1.387421098785408134e-05 4.904379842078639915e-05 3.089999872509046740e-03 -8.012760102405348372e-05 2.304449584804214195e-05 3.133996413329989596e-03 -1.112584502493726029e-06 1.103920238606653283e-05 2.764999800753411251e-03 -1.258078312793252673e-07 -2.695620478740110148e-05 3.089000379928084385e-03 -8.120350448509111729e-06 -2.595809834811133661e-05 2.955000040108078044e-03 1.787075203887465548e-05 4.498622855205401769e-08 3.174000730024774744e-03 -3.412461357797011002e-05 -9.956589323311129615e-06 3.059998754424125573e-03 1.870856976048376117e-06 -2.195504377467768866e-05 3.171000390404742162e-03 3.087250304919426528e-05 5.204438057695457223e-05 3.132000522191182024e-03 1.686864944391971901e-05 1.904572425499168132e-05 3.226000419878078621e-03 -5.412779916480352541e-05 3.004454637841322541e-05 3.138997372823126245e-03 -4.408477913778785550e-04 4.394736287559670220e-05 -3.737018578243025448e-03 1.004148860678872853e-03 4.499475074068046360e-04 -3.646965492868793797e-03 -5.558334148591255030e-04 8.779426749190404056e-04 -4.074035085082361451e-03 9.291608822171929091e-04 -7.340569422880483365e-04 -3.964951760165070192e-03 -9.758653636811586698e-04 -2.440461784516014107e-04 -3.311036281098503689e-03 5.812192621660826049e-05 -1.133042805530372994e-03 -3.015981571980958301e-03 -1.689051087512220066e-05 3.519619884282848316e-04 -2.682005680334026421e-03 -1.478661329877014414e-04 5.419536551933859482e-04 -3.277013707987470360e-03 1.741002633329886647e-04 3.229650430606946943e-04 -2.455997491706411826e-03 -4.237568500994117436e-03 3.763854110839852125e-03 -1.052422593028562968e-02 -4.488492973928095682e-04 1.395948262204376854e-03 -3.674038072404607180e-03 4.692463376750680148e-03 3.660835989125203055e-03 -1.130886083204578514e-02 1.532371844688000355e-03 -5.530132173466188565e-03 -9.237859204036484931e-03 -2.692800799877357893e-03 -1.310067603479090096e-03 -4.917091083811079774e-03 1.174251870676712656e-03 -1.750089090770430914e-03 -6.218927376853548329e-03 8.621405645495977803e-04 -1.511050027696019633e-03 -3.480943472789806668e-03 1.651202753109177719e-04 2.008958542329620373e-03 -2.915021761476592130e-03 -1.019723763888252289e-03 -7.109539767830278694e-05 -6.785040522339608193e-03 -2.387076932247760683e-05 -1.260450098734635955e-04 -3.175999187949825504e-03 1.304319848504201074e-07 3.954588521048359207e-06 -3.203000053733550279e-03 2.913001143164842092e-05 -1.304529240617273378e-05 -3.192998631816185151e-03 1.512740136665054193e-05 -7.004438823737240837e-05 -3.129998393834147741e-03 5.012781170529691992e-05 -1.404454324804158268e-05 -3.138997762550746213e-03 -5.486984988111870680e-05 7.954730830001232930e-06 -3.196002350097922745e-03 -4.186778177334999897e-05 -5.504601658795656155e-05 -3.248000927479420541e-03 3.013026983520054110e-05 -4.704539243030884439e-05 -3.199998109044868960e-03 1.713209834093450113e-05 -1.040460344241992628e-04 -3.245997830240654036e-03 -2.670016732508580584e-04 -4.999209649912417207e-06 4.098919838345566248e-05 1.240010069731071985e-04 3.799956263755711585e-05 -2.399548934716293235e-05 1.199908550000487826e-04 1.260031243873064916e-04 2.270030998929182728e-04 -1.829937671839962365e-04 5.499798825785669524e-05 -1.520082315514460932e-04 1.749982651888711276e-04 -2.389995982440095540e-04 3.801051459908933046e-05 2.499047269498008499e-05 -3.619968011788627358e-04 2.270061501606341996e-04 -1.099707443392762901e-05 -1.640010547051614525e-04 -7.499812270643377516e-05 2.800234376330725273e-05 -2.300084423370476775e-05 -5.799853367369228350e-05 -2.988470539755485436e-06 -4.500402414035817430e-05 -2.839994838991913902e-04 -2.343028568056042781e-03 -8.629884535631825344e-04 6.849168258189309655e-04 1.591964646412948959e-03 9.790113290759124703e-04 8.870509467399894776e-04 7.452935630448443175e-04 1.648972514578425619e-04 -7.205971995598203957e-03 -1.700686715844269359e-03 -1.433108134737075441e-03 -7.721048942255272392e-03 8.305302001469233239e-03 -1.842112155528427076e-03 -7.451635690963802523e-03 -6.635381603967612126e-03 -1.762210589905307493e-03 -1.522024522820029230e-02 -5.380095278964355408e-04 -9.349965162500109518e-04 2.159913481901478154e-04 -3.830018870293996403e-04 1.437001348899518468e-03 7.396403039912967750e-05 9.063554437018472550e-04 1.415422756507874434e-02 1.610083624678038464e-02 1.369965457170952523e-04 1.130011261863315367e-04 8.700397658845611978e-05 -1.100072333303917568e-04 1.900260977523638949e-05 1.779952511634027581e-04 -3.100581046727180488e-05 1.200020800411111298e-04 1.449970361872075623e-04 5.099285189562228441e-05 2.400245535676049879e-05 1.760017363334744024e-04 -4.002270227230340750e-06 -9.099923125789193294e-05 5.400112724287273267e-05 -5.000453564324100226e-05 -1.999838711289065988e-05 1.109982474095280963e-04 4.399537424278832440e-05 2.100158181472350601e-05 1.140014938784421117e-04 -8.300464918406378527e-05 -6.099833291429351199e-05 1.129974849078841937e-04 3.899156526875663435e-05 -6.997095732504214650e-06 2.070016871651109516e-04 3.002908181687184361e-02 -1.643105648848714948e-02 -2.324544236568043369e-03 5.462940668577461086e-03 7.984366725453190261e-03 2.616810927914125021e-02 -3.548506295928480214e-02 -9.449952861738067367e-03 1.363688999193989537e-03 -3.137066434322027223e-04 3.310790713694097831e-02 -6.567482177635450107e-03 -1.874372077138915729e-05 -1.760741524519068499e-03 1.823002421711956630e-02 3.460487906639247990e-04 -1.287387041979985158e-01 2.088383934181447035e-02 5.610082878116070919e-03 7.896317073144629162e-03 2.267411651599756522e-02 1.170924025659810484e-04 1.025316185762084609e-03 2.230799025211539777e-02 -5.719918077808551320e-03 8.379326412309628588e-03 2.270664830086398245e-02 2.031536093104495324e-04 -6.170548842613633419e-05 2.078400916675418944e-02 -5.486734833745920720e-05 5.930204349487649225e-05 2.130099694478462119e-02 -1.458558188292088020e-04 -3.770192591437311760e-05 2.101599461469515900e-02 2.215717891507575955e-05 1.802934765147563812e-04 2.070099836533853543e-02 1.715068931783942158e-05 -4.670432198909734383e-05 2.085600137994250008e-02 -2.185174300512978787e-05 -1.887034833035963343e-04 2.091300180501873274e-02 6.014859924854798733e-05 4.029639575645160534e-05 2.090900189742440560e-02 -2.685912674381149586e-05 -1.017008848608346887e-04 2.109600036777893595e-02 -1.984597543547795883e-05 2.945585755978615076e-07 2.077499920699141939e-02 2.113955844585726419e-05 -1.270044040858003930e-05 2.113000106052723495e-02 -2.084860034919165905e-05 2.829548091246990399e-05 2.083999876923276970e-02 -5.860717933339337703e-06 5.029969414832795684e-05 2.113799906785772051e-02 1.113497815571412984e-05 1.430116950953565412e-05 2.124300027041406760e-02 -5.485659651851185729e-05 -4.270172778840735614e-05 2.103499839116376724e-02 4.714705879466455903e-05 -2.107031261720477362e-04 2.094200492664129512e-02 6.115447712802169378e-05 6.294339196555367649e-06 2.076400242032400839e-02 -5.785009920381203869e-05 -6.570399388435834917e-05 2.087499859523851004e-02 -3.584940299994857923e-05 4.329577621180733839e-05 2.085999794573496074e-02 7.800153657138089594e-04 9.364589506472707672e-05 -2.493296958798906990e-02 -1.416103227881078093e-03 3.326889711292660705e-04 -2.201606240217523006e-02 6.177420620557340413e-04 4.165742288730117128e-03 -1.814303392293176165e-02 2.452929937114173547e-03 -6.793258824621729343e-04 -2.284989050453034229e-02 -1.071248374694456248e-04 -9.483048797191087230e-04 -2.150999093733649281e-02 -2.349066657617066619e-03 -2.832312920373120975e-05 -2.292109527571542169e-02 -5.121861713878666589e-04 -1.063283239189846035e-03 -2.000600580023651279e-02 6.068802574942445309e-04 6.176932141732055341e-04 -2.160498406493807297e-02 -7.613549835378856314e-05 1.036699349146508447e-03 -2.121001781812946810e-02 8.203174691553709785e-05 -1.523593287418693073e-04 -2.533999452303499142e-02 -1.511504229074681744e-04 -1.484296083335708526e-03 -2.089198513034721399e-02 6.583158562822287723e-05 -9.032898307631462547e-04 -2.043898453162420331e-02 7.988437563154874872e-04 1.689706064768222056e-03 -2.068799144594953704e-02 -1.204130654013965468e-03 9.816985310362735806e-04 -2.133006297136098503e-02 4.059567253547393404e-04 1.077666873209525865e-03 -2.347399876986291933e-02 1.125812842133509534e-03 5.897162720523495098e-04 -1.994996253537744887e-02 -1.199129414786251737e-03 -1.490302578497539575e-03 -2.140802772025292983e-02 8.482612831127320447e-05 -7.482879032977341784e-04 -2.030198595560872565e-02 -6.814642455736763635e-05 3.270287325479952591e-05 -2.096100325811961138e-02 1.408496480214750960e-04 -4.229594349327669804e-05 -2.086599368421777553e-02 -8.214980753475224523e-05 -2.329595319838906857e-05 -2.087900303433299840e-02 6.585121744063951281e-05 3.770359064494164196e-05 -2.090299787246829508e-02 -5.914851851632690416e-05 1.147036176227218352e-04 -2.090800405425782132e-02 -3.314720695162785168e-05 -8.229691311595144839e-05 -2.094400020246282509e-02 1.008525698935832006e-04 2.047031378893797459e-04 -2.093299881489711634e-02 1.184916112047852743e-05 1.157043701642296605e-04 -2.085100117730814481e-02 -1.181495090883018657e-04 9.770400408829754278e-05 -2.088400621578836991e-02
-1.661123898266244400e-03 1.097785586255401423e-03 1.258509169104508885e-01 2.102848668026403335e-03 1.960051576605287369e-03 3.754057844043790036e-03 -4.507487456034895410e-04 4.015057565400647482e-02 -2.995558762935955632e-02 1.238215996247961359e-02 1.756928756822282583e-02 2.096725513768213020e-02 9.708568693348985316e-04 -4.695093951162290758e-05 3.514040203034708796e-03 -1.336479336024464122e-02 1.760829149444522596e-02 1.982120614606004694e-02 -5.421308849678752820e-04 3.211046870517820975e-03 3.275932401454836884e-03 1.019900089034216431e-03 1.687034447173124934e-03 2.486017615070188012e-03 -4.891470687645206594e-04 8.500518198410082294e-04 3.627968033032274043e-03 -4.611545605547435155e-05 3.604024424184405561e-05 2.835997613805022691e-03 6.187099319312719002e-05 -3.955133289647740911e-06 3.168002578458855092e-03 -2.412877727341928655e-05 2.904486315571807537e-05 3.162998608604113051e-03 6.187341922989245482e-05 2.604403021740148413e-05 3.109002153180797506e-03 -2.412722047861701010e-05 4.104432439828453613e-05 3.124998438506276354e-03 -4.613068410747295478e-05 -1.395446743544489273e-05 3.208998322346455750e-03 4.387567693819380949e-05 1.010432787028218223e-04 3.055000356923415726e-03 1.487288441293970442e-05 1.904425133026621926e-05 3.122000338533055096e-03 -6.512740056658836412e-05 1.904441321452623448e-05 3.128997080858458065e-03 -2.211438795563913296e-05 -3.960157346506038520e-06 2.808999158241087292e-03 1.387257429353743710e-05 -1.295564863894411788e-05 3.129000751494127180e-03 -1.214138984255309877e-07 -3.195773598879626722e-05 2.981000450917298435e-03 6.868591492756993163e-06 -2.954253735033545704e-06 3.227000324579433910e-03 -1.512628001387523125e-05 -5.956022911031446962e-06 3.100999471371129312e-03 -1.306371561974512321e-07 -5.954517631869921069e-06 3.208000082084429012e-03 1.871188252764194740e-06 3.704485697480688612e-05 3.163999553923204852e-03 2.386730956826097947e-05 2.404618664076151743e-05 3.259000634004542620e-03 -3.712836613636952840e-05 3.404473155621041318e-05 3.152998008353527244e-03 -4.368472447716592946e-04 6.594717543005451362e-05 -3.750018727258332477e-03 9.841489961787304452e-04 4.669474805316278896e-04 -3.649966548305006147e-03 -5.438317249417271362e-04 9.039420842308554986e-04 -4.115034965015884096e-03 9.471616511967830953e-04 -7.400572257594863201e-04 -3.983950942105506446e-03 -9.828654177169420664e-04 -2.610461587911192178e-04 -3.310036325123411841e-03 4.712302960627939228e-05 -1.128043179718394478e-03 -3.042982090774038525e-03 -2.588962049419175584e-05 3.449616835644579325e-04 -2.704005947556890801e-03 -1.598653381502856334e-04 5.169533810359529073e-04 -3.297013842175005194e-03 1.941018803963988132e-04 3.079644602904692404e-04 -2.495996464585753440e-03 -4.242568035847094771e-03 3.733853944624312884e-03 -1.053622570854582594e-02 -4.258484548114212643e-04 1.379947946463375413e-03 -3.695036908961294320e-03 4.681463361088333136e-03 3.640835997740177188e-03 -1.130886099641987760e-02 1.510372823573554466e-03 -5.528132496507564067e-03 -9.261860128228426373e-03 -2.656800132702306135e-03 -1.290067858513693506e-03 -4.933089901400834927e-03 1.161251192537537426e-03 -1.732088839570774348e-03 -6.201928161440158765e-03 8.481400735604086808e-04 -1.514049846600226505e-03 -3.468944000359586773e-03 1.761204280236803698e-04 2.047958491179344923e-03 -2.918021866477216175e-03 -1.015724788964731404e-03 -8.009504636449603495e-05 -6.760040231879572113e-03 -4.187082883415209919e-05 -1.500449815993179438e-04 -3.174999580659751582e-03 1.313059172313431555e-05 -4.547836867987416835e-08 -3.206999467647713830e-03 3.812931525203620050e-05 -1.804505843011290823e-05 -3.175998194455510477e-03 1.212686808035115798e-05 -7.504420157654016342e-05 -3.116998445119968392e-03 2.612798479501789821e-05 -1.044581168625843636e-06 -3.142998924158379743e-03 -2.986977472876158309e-05 -4.531709968690011444e-08 -3.198001218652677790e-03 -5.686802373522860426e-05 -5.204591977654447255e-05 -3.242001580831055559e-03 4.212993700636625811e-05 -5.604528840299250353e-05 -3.191997492802220709e-03 2.213192137408600735e-05 -7.004596745363080859e-05 -3.240998108685004282e-03 -2.810027617318979669e-04 9.001184111097213086e-06 6.798842977775232724e-05 1.370012097829515472e-04 3.699948156973107576e-05 -2.899494579368695684e-05 1.379931541579238852e-04 1.500023163344158471e-04 1.710034926539726865e-04 -1.939953028131909736e-04 6.999853562552603187e-05 -1.140088921825851178e-04 1.299967335057434289e-04 -2.189990242549749765e-04 7.600839857019500419e-05 6.699137008577251621e-05 -3.599971459764008644e-04 2.050078321013053370e-04 1.002118166499408237e-06 -2.070007947186685215e-04 -5.599702443005366218e-05 2.500284336092309173e-05 -6.100102619222518816e-05 -7.099811706914910703e-05 -1.898635147565752232e-05 -4.300474885798018714e-05 -3.360001637399970200e-04 -2.311027381693208944e-03 -8.559888897758307236e-04 6.559180296687809044e-04 1.572964333957755376e-03 9.440114432009353955e-04 8.940506692590324909e-04 7.362877101963948229e-04 1.268992859333757509e-04 -7.062971823463784493e-03 -1.662685089392906823e-03 -1.436108731602441348e-03 -7.761047352292454841e-03 8.238299299870022185e-03 -1.808111153158822914e-03 -7.384638901367068450e-03 -6.612387511642783648e-03 -1.766208552133488249e-03 -1.507524423504445592e-02 -5.100073665558629583e-04 -8.789972754249075586e-04 1.639916944675640445e-04 -3.610036278573115916e-04 1.450001941317493161e-03 1.169647419069564428e-04 8.643544013999222104e-04 1.407122793824003987e-02 1.612483571323669596e-02 9.099618864558807702e-05 7.300127563055008276e-05 9.500267053240666769e-05 -5.800630619708215468e-05 7.002242971352662780e-06 1.549975388022032188e-04 -3.500482692018733920e-05 7.600172873264736601e-05 1.199974971486356096e-04 2.899265301110995097e-05 3.000254347104787698e-05 1.810007554035210754e-04 2.399800228323206114e-05 -5.499933825218568048e-05 4.800175703279677093e-05 -5.700376115790149468e-05 -1.899865101013028113e-05 9.199794820346917257e-05 3.699639305316789682e-05 2.200123285071170577e-05 8.900119467796077438e-05 -6.000299607876143689e-05 -2.999891803814478465e-05 7.299798201397634059e-05 2.099313461566390242e-05 2.100237960238006727e-05 1.690005572477385008e-04 2.991208470276343970e-02 -1.623005734680914997e-02 -2.391551850575798169e-03 5.370952599051334597e-03 7.931362629222343461e-03 2.587410628451771236e-02 -3.527806196567630920e-02 -9.376953349914923797e-03 1.340696393454818584e-03 -2.007062035323449890e-04 3.288990683581746038e-02 -6.582474485412894392e-03 -6.373308635121661752e-05 -1.804745203862190978e-03 1.796802300874641642e-02 2.900546602711418366e-04 -1.281597060398558807e-01 2.075082885264539420e-02 5.668090223490638950e-03 7.916314475725667876e-03 2.249411859441898670e-02 7.210043477026029806e-05 9.863134137973611233e-04 2.210998897279393277e-02 -5.737911987714791086e-03 8.304324285564022162e-03 2.255564863136129070e-02 1.321573227515501921e-04 -1.557067513589017484e-04 2.069100760836998024e-02 1.137521661852527042e-06 3.830029831376521973e-05 2.118099952299686353e-02 -1.308497953166033669e-04 -9.370405014517914268e-05 2.086699601960119096e-02 -3.884144436150532457e-05 1.702930422334876395e-04 2.066699602317586051e-02 7.615458519875927272e-05 4.029429909259470973e-05 2.076200254909467413e-02 -3.084669593924292268e-05 -1.397052201304003496e-04 2.079000074393499986e-02 -1.684783214156345001e-05 2.129520840307906030e-05 2.082099903137818106e-02 4.414497897496218811e-05 -5.870235823743296489e-05 2.099600264940849892e-02 -2.283965665062661054e-05 9.292363365397727866e-06 2.061999895737308408e-02 -3.784904985646027185e-05 -2.570436399319798892e-05 2.084999884256823199e-02 -2.484056972108345687e-05 3.929269101765905074e-05 2.064299845057709915e-02 6.414930246953940373e-05 5.429615160053443638e-05 2.089200186183492666e-02 -8.520530428535883271e-07 -1.270334380850943153e-05 2.092400016486000922e-02 -7.084806312604793746e-05 -1.370467842262330203e-05 2.082599732866929551e-02 7.415693985705207455e-05 -1.767065783428493854e-04 2.070000554428528053e-02 2.616618595321027472e-05 -1.770971660122430916e-05 2.047600133562826538e-02 -6.840057653671861844e-06 -8.670753573049995542e-05 2.062800096996456056e-02 -2.783883436896319284e-05 7.129209789601630674e-05 2.060099787476515898e-02 8.600052606355275409e-04 1.376493626916443192e-04 -2.468396695437404323e-02 -1.406117090188611267e-03 3.626937979244990217e-04 -2.167506242061661287e-02 5.347312076575000146e-04 4.136746125015287358e-03 -1.787703689185453707e-02 2.485921136683919702e-03 -6.853228458966426984e-04 -2.263388907587647256e-02 -8.113679690577890497e-05 -9.843007459793382159e-04 -2.121698936846725184e-02 -2.405075922382768263e-03 -1.073198811662302805e-04 -2.269509643624986056e-02 -4.651942270760281114e-04 -1.002280454615537631e-03 -1.980700475138507180e-02 6.008666833801557710e-04 6.516979542514064272e-04 -2.127098479161762534e-02 -1.301449651332207719e-04 1.011702680679345745e-03 -2.097801966282700908e-02 1.701596212145730158e-05 -2.373538052095399570e-04 -2.495399596513924248e-02 -1.381627644670677427e-04 -1.488291797642260278e-03 -2.058898454454676299e-02 1.208170944485762306e-04 -8.962848265334911850e-04 -2.008298239155267492e-02 7.008299230647670186e-04 1.704710961950756587e-03 -2.034799564957546353e-02 -1.152144404355287663e-03 1.050703296586145453e-03 -2.099106183245754223e-02 4.479397001408749724e-04 1.176672794987759568e-03 -2.305399846357619048e-02 1.032797230432468258e-03 5.177217607960793054e-04 -1.956796530197274162e-02 -1.166142243445372588e-03 -1.492298138330671762e-03 -2.109302634840214130e-02 1.358087757061145608e-04 -7.552819034890077918e-04 -1.987598377999698351e-02 -9.915251152615510812e-05 7.705010021709763379e-06 -2.081200416616041729e-02 1.128457341426163086e-04 -4.829456050042459255e-05 -2.076999473942427177e-02 -1.915285694856439175e-05 -1.729493919309951661e-05 -2.080400055405567938e-02 5.984497461991838529e-05 2.170576454722213187e-05 -2.074999789009141643e-02 -5.015214111140555027e-05 1.167048723993421378e-04 -2.081900371620842502e-02 -2.015241528708276066e-05 -2.529509436504586860e-05 -2.081500048134419731e-02 5.584824255183617813e-05 1.907046759719266361e-04 -2.082700044894526467e-02 2.844583155245136664e-06 9.370596512649357398e-05 -2.073900123198912232e-02 -5.815381536065172775e-05 1.107054599535261310e-04 -2.077800395694676810e-02