-2.625253025527555248e-05 2.608795104212164494e-05 6.201998566870651347e-03 7.398712067961689658e-04 7.890444775369686572e-04 3.178018944220186749e-03 -6.551343888240894952e-04 7.660475121768896105e-04 3.314962464594083981e-03 -9.791290935787914408e-04 1.440457526834073080e-04 3.172958089739201775e-03 9.288717403870164029e-04 1.190439609955594609e-04 3.152036139586740591e-03 -6.914263250815548046e-05 1.604971884227913314e-05 3.502996960160674467e-03 -3.911225456129871231e-04 -1.008957302138648081e-03 2.989998380731052809e-03 -2.213903733463266864e-05 8.304844856650884263e-05 3.415997924211399729e-03 3.448695735479307008e-04 -9.319551137614856279e-04 3.185027259408415752e-03 4.387524854832822272e-05 2.204340631094419182e-05 3.064001476958363220e-03 9.879167180050764545e-06 3.404207186324888945e-05 2.967999922405505520e-03 1.888114760585046952e-05 1.504137010622610473e-05 2.919000558316221534e-03 3.587918672284221862e-05 7.042037330275380762e-06 2.967001363948177511e-03 8.783425592784877379e-07 -3.095765170512106357e-05 2.987000477454808400e-03 -5.211850071061695531e-05 4.804131227326349101e-05 2.910997199277034347e-03 -4.312150705804365392e-05 -4.695767396285867074e-05 2.982998912585293084e-03 -2.512109983959142707e-05 5.042184337810058284e-06 2.973998908325279408e-03 4.087930807266045333e-05 -4.595802329054384666e-05 2.963002318977615325e-03 -2.716213201963290150e-03 1.468076758384360319e-03 5.263868584318190727e-03 -9.957099110118326421e-03 1.762042786914051187e-03 2.467569558971953979e-03 -2.606162567794214832e-03 3.480587374565574568e-04 3.998888943882839865e-03 -1.691099867678359011e-03 -9.109641529299516895e-04 2.434944054719708449e-03 1.980866086794569759e-03 1.012045348929655614e-03 3.308066317034322103e-03 4.598842998176660589e-04 -1.937960605444660625e-03 2.804046205490519274e-03 -2.249501553388236208e-02 -7.167978926396786736e-03 2.431856104358423739e-04 -2.021627386716276856e-02 5.982112818745314101e-03 6.840091969533382797e-03 -1.330098773191551627e-03 -8.649648042188806934e-04 2.408958102794011690e-03 -3.571989581544166015e-02 1.488034393268708455e-02 2.228433450608154412e-02 -2.021576459361764180e-02 -5.583067649245980479e-03 -5.888744052799261067e-03 1.190919139971510256e-02 8.527274527297130924e-03 2.002136407293622633e-02 4.791379399850183470e-04 -1.512170435612429642e-02 2.087923392273860479e-02 -1.605826821170850804e-03 -8.420592674316958572e-04 -4.269053456041598665e-03 1.902207395388810611e-03 -2.747074447916698480e-03 -5.145883597841218772e-03 -1.024882715276505783e-02 -1.830522023286523217e-04 -4.248414749523445749e-03 -2.297762735181931026e-03 1.224919525455179462e-03 -5.803110938881654059e-03 -2.699891569817346789e-03 1.929644153122935934e-04 -2.659112680134561885e-03 2.731175521444343074e-04 -1.670411875697147672e-04 -2.889986512834607016e-03 -2.087105823875068578e-05 -2.704488463227413224e-05 -3.167000469394221952e-03 -2.668833103810647482e-04 -1.770404670170798195e-04 -2.869008360336096613e-03 -4.088362984180948009e-05 2.989595970003238595e-04 -2.852005906054957962e-03 -2.238785499963150117e-04 -1.820421594874679807e-04 -2.986006538341918169e-03 2.671220917519892069e-04 -1.420427566095434566e-04 -3.000987111500614830e-03 6.129789065742195457e-06 1.495481066668830987e-05 -3.186999965378715591e-03 3.412809522228174271e-05 3.595538420808416119e-05 -3.144999122966959850e-03 4.812344926692931594e-05 3.429570745506324483e-04 -3.025002905559980460e-03 9.118918191099246507e-06 6.895860796141336255e-05 -2.919000609064521627e-03 -1.187566672831664048e-05 1.595672458509697826e-05 -3.053000712656365068e-03 -5.087373795357456912e-05 -1.704392540890359637e-05 -3.101001832858743274e-03 -6.287253823349774615e-05 6.955672828565264329e-06 -3.130002661748321723e-03 -2.287976701183991508e-05 -2.004184901877977668e-05 -2.953000650279202343e-03 -1.588109826819029648e-05 -4.041386634118861988e-06 -2.920000592108136679e-03 4.411662520789118460e-05 -5.104065383040510656e-05 -2.864997482553314351e-03 6.512210372309294444e-05 -2.304257010072576642e-05 -2.998997024268252112e-03 -3.388551645191167076e-05 2.196017283688543866e-05 -2.811001693806633277e-03 1.538299639973691457e-01 1.662892495860850009e-03 9.192405100579012847e-04 -3.882030257050009606e-03 1.657014027215439377e-03 7.748184283814613061e-04 -7.288848558384086046e-03 1.452130511169458064e-02 2.111749733150249803e-02 -1.401777037063142023e-02 -3.981721886321217506e-03 1.884148565416853341e-02 -1.394103724307827310e-03 -3.441963733046069299e-03 2.480992032689064136e-03 1.192313262880274026e-02 -7.284709333561865084e-03 2.116058882076527273e-02 -1.430937945004354464e-03 -1.100205148371358752e-04 -1.526056710565399299e-03 -9.180052216176434569e-04 1.430025760672477071e-04 1.309605907167217466e-04 -1.130104104943802177e-03 -3.095963712947209269e-03 2.496997877472725488e-03 -7.990307599905966646e-06 1.049966602936783314e-04 -2.360018142125877658e-04 1.770132670612676391e-04 9.399526779450642926e-05 -3.239941248179284286e-04 3.000113798278708136e-05 3.609996787400197860e-04 -2.100389652755659168e-05 -2.849996435624414836e-04 -2.209999611351559363e-04 -1.300847214475720660e-05 -3.398522910203585935e-05 3.499949792914359850e-04 -3.560063463952144527e-04 2.120046708672409218e-04 -2.230018531303523211e-04 -1.189882054276878879e-04 1.001135632968429998e-05 -1.620040059519225377e-04 -2.819972957316604369e-04 3.130113051710807634e-04 -1.750042290206518423e-04 -2.809847730037765673e-04 -3.249874029615025962e-04 -1.380041689844906550e-04 -3.120112774552197201e-04 1.259953075960124384e-04 -1.199846820983913920e-05 1.150053008534984868e-04 3.899341805448648630e-05 -3.299774790846982521e-05 1.610020558297226413e-04 2.500009001527206235e-05 -4.100006210415671763e-05 -2.998400687631134003e-06 3.099703597227613052e-05 1.100101070507175425e-05 7.300110632312578770e-05 -2.000436178975282302e-05 4.600154685718501908e-05 1.079985333054615511e-04 -3.700471183315120046e-05 1.500167359360773185e-05 1.159982805542232685e-04 1.698964043749407599e-05 -2.099641214879535109e-05 2.540009897513838179e-04 -1.140049247763693074e-04 3.001804774498291225e-06 1.209953151772008963e-04 -1.900296476982736018e-05 1.000104985498036297e-05 7.299908445833343089e-05 2.909927806198610561e-03 -1.469629374779973623e-03 2.630213935525959820e-02 8.717886563042356711e-05 -2.577142445231298592e-04 2.016000722255717123e-02 -2.637085127507763846e-03 -1.559620551307888724e-03 2.661791475240341334e-02 -1.290942112461789502e-04 3.064381907943753303e-03 2.692995132202970904e-02 -1.024872939174936845e-03 -6.846954530550187698e-04 2.142396799370071409e-02 1.002140262957431976e-03 -5.157015912775756491e-04 2.110304813912230321e-02 4.361889861992312794e-04 8.228205115045794280e-05 1.991801661391959591e-02 -1.208182874812586412e-04 1.012850251027714004e-04 2.009699366286161679e-02 1.151311094056335795e-04 1.261302775109871639e-03 2.136198682560091697e-02 7.134578002792999747e-06 2.330131441856660786e-05 2.125299997992149623e-02 -3.286881359731688219e-05 -9.569750584816617248e-05 2.133400003816600388e-02 -8.686482445237381667e-05 -4.569883881756455673e-05 2.123699713044203963e-02 1.013253804043679615e-05 1.830202095985035985e-05 2.130300017292638404e-02 7.313018323162530658e-05 2.730279394231629648e-05 2.136100261068622080e-02 -9.787119567507457146e-05 -1.769660429355753690e-05 2.139399628538935644e-02 9.412793889154768071e-05 7.330357145130002978e-05 2.141700281359491115e-02 -1.387134058093269836e-05 5.730340081618132147e-05 2.139899864260394469e-02 -3.686914011931154156e-05 -4.469737512116466307e-05 2.134299915220829943e-02 -8.711256475269974972e-03 8.286098380046647352e-03 6.457527797714487580e-03 -8.696359797573478476e-03 -9.111522232923453465e-03 3.321777508910084969e-02 2.024215237211831123e-03 -8.972837944149348981e-05 1.927008371780886131e-02 8.962274267744756596e-04 -5.407318629373355449e-04 1.896204417914644155e-02 -1.848857382930776472e-03 -2.687001104035897795e-04 2.104992854211746103e-02 1.553133190036128921e-03 3.843006851597264976e-04 2.129405781614659640e-02 6.346165285811364125e-03 3.472857459823395056e-04 2.050525351649669717e-02 -1.028947048499906456e-03 -1.616695046102439165e-04 2.325396041414585363e-02 -4.197396508737122681e-04 1.146258165346334974e-03 1.818596667334077335e-02 -3.183723833346285598e-04 -5.033074226936280759e-04 -1.627670059799091740e-01 3.614846806762174545e-03 -4.236298819154868389e-03 -2.087679275843079205e-02 1.731960288960532422e-03 -3.675336702389590034e-03 -2.365287738693818559e-02 3.429852545242415614e-03 2.807005596431057215e-04 -2.093086433269563187e-02 -3.814136807664137915e-03 -4.822976813273418422e-04 -2.120714849665102444e-02 9.567857269456340411e-04 6.997258751349133207e-04 -1.928197097737624488e-02 -6.165673613233032917e-03 -4.464110025915918149e-03 -8.101187787701191745e-03 -8.793682207500484391e-03 8.337550346422133163e-03 -3.220147632414336464e-02 -4.121432062356677724e-04 3.931703085501231029e-03 -2.096507254518843386e-02 2.786456291267031999e-05 -2.830104408922537928e-05 -2.123199848382241114e-02 -1.741262857008171229e-04 -4.230407592654724226e-05 -2.145700651073648851e-02 1.818748776446787476e-04 -1.163047799995796042e-04 -2.148699096493110472e-02 1.958767233666356268e-04 -1.513054431365840839e-04 -2.153298989857470661e-02 -1.331269952527007407e-04 -1.163038811772037828e-04 -2.144100379204197035e-02 -9.814248247172070705e-05 -2.929849267301108421e-05 -2.105900360063270998e-02 -9.512401389370085246e-05 2.066951391240908409e-04 -2.150800682400494032e-02 8.481407328998644352e-07 6.070471904982070971e-05 -2.082700084548282440e-02 -2.112678375577072327e-05 2.056960452725608234e-04 -2.144000379654741051e-02 1.685479464661322922e-05 2.970238136656780595e-05 -2.099099975428608475e-02 2.358717367351024412e-04 1.366963402723424552e-04 -2.140499235305553041e-02 1.518745019040253967e-04 1.316954419544389256e-04 -2.147299570265499141e-02 7.868779065874498545e-06 -1.043025170901537276e-04 -2.133699822063180040e-02 -8.114414665517184679e-05 -2.302979813852541974e-04 -2.102200005868217619e-02 -9.814151134022307428e-05 1.707012237509193675e-04 -2.107900643616680836e-02 -5.014120535253927392e-05 -1.662990122880577391e-04 -2.109299970364665253e-02 1.308628048289228892e-04 6.669951325338481334e-05 -2.118699563650410650e-02 2.808697029315553539e-04 -1.630302859067833381e-05 -2.135798835146310651e-02
-3.025118489709060108e-05 2.808748630665766020e-05 6.168998375662397213e-03 7.358717338196863605e-04 7.860442963579160293e-04 3.165018823882157720e-03 -6.471338641612455313e-04 7.600473216021855520e-04 3.301962875439558385e-03 -9.701286879450028364e-04 1.420456038586898984e-04 3.162958484591684924e-03 9.208722713317188001e-04 1.210437829479873539e-04 3.139035785476489496e-03 -6.914193868672831647e-05 1.804947781955634124e-05 3.485996931820950582e-03 -3.881220131102611627e-04 -1.004957488799379777e-03 2.976998446194637025e-03 -1.913838815440114678e-05 8.004821937309700250e-05 3.399998088922116628e-03 3.388703519503082117e-04 -9.259553784422254810e-04 3.166026930034390816e-03 4.087589851710963048e-05 2.004318181540847360e-05 3.048001383166210401e-03 1.487990093459745621e-05 3.504181274785075591e-05 2.950000111848729862e-03 1.688175842010943605e-05 1.504115900528796953e-05 2.904000476888463078e-03 3.187983590887954750e-05 4.041813617836626881e-06 2.951001243612937086e-03 -1.209659691854057376e-07 -3.195789194454526713e-05 2.970000450927523603e-03 -4.711793454087123977e-05 4.304110986965168978e-05 2.896997473783121790e-03 -4.512085630651816728e-05 -4.795789924149135752e-05 2.966998845336227871e-03 -2.312044517351609805e-05 9.041955926688687332e-06 2.957998933070801056e-03 4.187988208145863953e-05 -4.095822256317914586e-05 2.949002288822663315e-03 -2.700212231728562132e-03 1.459076405590240336e-03 5.239869363473990786e-03 -9.909098874452406183e-03 1.751042664264572347e-03 2.461571669533783088e-03 -2.590161959345606106e-03 3.450585122619909389e-04 3.983889637963691430e-03 -1.680099581074455265e-03 -9.089642607876785140e-04 2.427944474300051080e-03 1.969866610689598955e-03 1.005045173231979092e-03 3.295065968361388705e-03 4.558846749278520926e-04 -1.926960729913943220e-03 2.795045886660082936e-03 -2.236001618550279013e-02 -7.115978791083989348e-03 2.601903704912396711e-04 -2.009327226977411854e-02 5.942112155329005128e-03 6.800097545345792568e-03 -1.323098521820156078e-03 -8.559648947675332518e-04 2.402958260245675881e-03 -3.550789043268083589e-02 1.478634186687679576e-02 2.215034447173631210e-02 -2.009476602910886811e-02 -5.544067233591814040e-03 -5.852739678542517344e-03 1.182219603880374503e-02 8.471272964976973505e-03 1.990636132428383678e-02 4.781429471319847968e-04 -1.501970607086482168e-02 2.075823243599835694e-02 -1.596827590956408256e-03 -8.370590051010533923e-04 -4.250053160460418554e-03 1.889206385997901005e-03 -2.736074083293973513e-03 -5.120884283190920393e-03 -1.019482792180436380e-02 -1.770519752329376823e-04 -4.229412635681728712e-03 -2.282764121270079109e-03 1.222919995755481154e-03 -5.769110299744966731e-03 -2.687891978602846305e-03 1.909645476944949914e-04 -2.649112163138117506e-03 2.721170674130509956e-04 -1.620410166536783033e-04 -2.877986624455430419e-03 -1.887158761132963635e-05 -2.704470188692672337e-05 -3.154000387964604572e-03 -2.658837536096933280e-04 -1.710403118449318647e-04 -2.858008404692051561e-03 -4.088415999630311580e-05 2.979597813117644024e-04 -2.839005891889278925e-03 -2.288791185167812433e-04 -1.800419570835537194e-04 -2.972006770314714920e-03 2.691216438210902316e-04 -1.420426022197867537e-04 -2.989987030069138092e-03 1.012921505279700073e-05 9.955006024342829193e-06 -3.172999731619507730e-03 3.112743820631535228e-05 2.895561340250412047e-05 -3.128999145900042411e-03 4.512299742230995982e-05 3.379572328558739093e-04 -3.014002956843942187e-03 9.118183648832066065e-06 6.695886316193152947e-05 -2.901000580725727421e-03 -1.187623525292982563e-05 1.795692307403043943e-05 -3.039000741024906402e-03 -5.187422581925181210e-05 -1.604375449246389635e-05 -3.089001887768513289e-03 -6.487319133242608587e-05 4.955901239485011279e-06 -3.114002714849370499e-03 -1.888046318730514646e-05 -2.504161112773916617e-05 -2.936000416522783520e-03 -1.888162920376922359e-05 -6.041199973589050084e-06 -2.907000685927247589e-03 4.011597446134208074e-05 -5.004042385379548120e-05 -2.848997659629356159e-03 6.412157748729614692e-05 -1.904238500679313796e-05 -2.985997121712241631e-03 -2.788616799032825244e-05 2.196039498363431413e-05 -2.795001449496400253e-03 1.528009694532480311e-01 1.660891401739517364e-03 7.851986367821954136e-04 -3.847027966550524338e-03 1.618013191680169743e-03 7.178204065970127676e-04 -7.225839717362577720e-03 1.442330195743851858e-02 2.089850128654052036e-02 -1.392776042698536630e-02 -3.971725416173948336e-03 1.859748917749431962e-02 -1.404098461908289720e-03 -3.429965554152919396e-03 2.351991455467309158e-03 1.185714153891068851e-02 -7.242712372647743500e-03 2.094258553792568284e-02 -1.405936031929182380e-03 -1.110212007683210284e-04 -1.573055678322666769e-03 -9.230024799964665341e-04 1.600016300682253513e-04 6.396014615277029680e-05 -1.137099595086229348e-03 -3.056965267027657827e-03 2.386997039596248232e-03 6.008333712865801537e-06 8.599711720089454816e-05 -2.030009747738429975e-04 1.730113007106624128e-04 7.899595146218066116e-05 -2.759940750795015357e-04 2.099937915839631661e-05 3.510002954331938800e-04 2.199587872244529736e-05 -2.970008401033374912e-04 -1.889995264085671516e-04 1.699058548871049069e-05 -1.298758074171858748e-05 3.629957851593372488e-04 -2.980056756221827695e-04 2.070021736043792390e-04 -1.880009701955874318e-04 -5.698890531129992195e-05 9.008982768190732990e-06 -1.770031828552831197e-04 -2.239971238399762006e-04 2.920094719671241035e-04 -1.760035745768404405e-04 -2.359856140057184728e-04 -3.099902252490801895e-04 -1.540032024599399493e-04 -2.430104398623798021e-04 1.419964971064107231e-04 -9.988918949520939456e-07 8.600579645867657223e-05 3.299392864960066601e-05 -4.997913346859968794e-06 1.490014145383940138e-04 2.100163662693660700e-05 -4.200059772829508009e-05 -4.099854935794739358e-05 3.899837818621432759e-05 9.000536574057143761e-06 4.000146047613841279e-05 -2.002779960509475764e-06 3.800097983004154098e-05 6.899937973914371597e-05 -5.100181515688439099e-05 2.200067793137744360e-05 4.499761128396484894e-05 4.992613068767709829e-06 -2.099743773190299693e-05 1.810005011690310884e-04 -9.400265147807805317e-05 -5.999004841057864800e-06 6.499625724615193726e-05 -1.600000077030308465e-05 -9.999874719606934736e-07 -6.373558543988186774e-10 2.880935410049716670e-03 -1.483632003319406952e-03 2.611513837301743940e-02 9.518482337862450675e-05 -2.937163349193882482e-04 2.001300805886011350e-02 -2.617076778993557892e-03 -1.610623487588515399e-03 2.641191629007787200e-02 -1.020859363187420993e-04 3.075379008709289413e-03 2.672695226572599850e-02 -1.049866218623471750e-03 -6.306977586439983666e-04 2.125996621023266628e-02 1.002147743863372915e-03 -4.787041858178571301e-04 2.092004761471517177e-02 4.561963558711118970e-04 8.127946930967488146e-05 1.973701744268263614e-02 -9.680901725396441214e-05 8.328177377533543574e-05 1.986899489557373416e-02 6.014117063302733962e-05 1.265299316258802461e-03 2.111498452947266000e-02 -3.858821294134318000e-06 2.829902622817142028e-05 2.109099946125390923e-02 3.138007909590767005e-06 -6.869990173057535505e-05 2.116700112147227100e-02 -1.168572926142553726e-04 4.298575952932716076e-06 2.105299520009937947e-02 -4.885799743712924574e-05 4.029877790588144715e-05 2.107099745870103999e-02 9.913796167407657671e-05 2.830006562540105531e-05 2.117000365542813858e-02 -7.886081266020375242e-05 -1.870023450820131045e-05 2.113899707350034088e-02 8.713676980964021445e-05 1.430048617883182126e-05 2.119900336523965201e-02 -4.386283303478226263e-05 5.330046114723833691e-05 2.118999747788374854e-02 -8.862045338472236913e-06 -8.469987815521313459e-05 2.116800085966534517e-02 -8.634249232534311341e-03 8.227095781936520982e-03 6.278531769874465783e-03 -8.711347634517087671e-03 -9.023526431992607080e-03 3.292077323092099106e-02 2.053223192639477140e-03 -7.073116682039325793e-05 1.907508462951731237e-02 9.142352083328748272e-04 -5.877345991632378173e-04 1.877004557865512638e-02 -1.836848272467576579e-03 -3.347033097968468100e-04 2.082492996670922553e-02 1.523141490843785096e-03 3.762978163801635498e-04 2.109005670813280872e-02 6.261173418321244917e-03 3.842829911520055262e-04 2.030624953083209547e-02 -1.009939713279448589e-03 -1.546720714910419672e-04 2.307396108876500970e-02 -3.947311731239899692e-04 1.156255196788987145e-03 1.797796754977777287e-02 -3.244152717770660654e-04 -5.152924887759239084e-04 -1.617140060550799896e-01 3.578844054229955024e-03 -4.215297826879038992e-03 -2.080879452217767808e-02 1.713956162849871378e-03 -3.692335256336613542e-03 -2.355187787898541454e-02 3.438847886629127406e-03 3.117021830394819731e-04 -2.081586440582554320e-02 -3.774142654234677579e-03 -4.082956568743204332e-04 -2.106214791710626921e-02 9.117811615724161082e-04 7.457275124559790839e-04 -1.916897346209670699e-02 -6.152676087028599757e-03 -4.451109171250661189e-03 -8.040187442697757647e-03 -8.706689762893083870e-03 8.257552887023879296e-03 -3.201747164737928086e-02 -4.361507474318804430e-04 3.869705713013736788e-03 -2.078107264363857412e-02 -1.714805656756144888e-05 2.870340043421334473e-05 -2.092100112468233200e-02 -1.501401206198712645e-04 -2.929927426934204180e-05 -2.111700571806304771e-02 1.978614389956124262e-04 -6.530009968239425787e-05 -2.115599103677112333e-02 1.818596503762536475e-04 -1.652994916769693658e-04 -2.111399027056743566e-02 -1.681412467341022402e-04 -1.152988915440619983e-04 -2.109100523177488001e-02 -4.415613653508794560e-05 -4.529378539174384991e-05 -2.072400117517394710e-02 -7.913765071191547408e-05 1.606998619844410335e-04 -2.117400552060469052e-02 -2.164059086553440088e-06 2.970896056274794148e-05 -2.052800052841266196e-02 -4.113888174653353310e-05 2.007002717382108713e-04 -2.114300454035170432e-02 5.984691198162221486e-05 -2.949159847374528641e-07 -2.079799757813599603e-02 2.318624320139867827e-04 1.106995759442909894e-04 -2.117699214752903278e-02 1.188679349061249273e-04 1.176977504197768907e-04 -2.131199684810405892e-02 -7.138517787781407977e-06 -1.142999675188332637e-04 -2.115799868983333012e-02 -4.515150934631876586e-05 -2.722954575657163625e-04 -2.084199799743279707e-02 -1.031483320892686369e-04 1.447035953603468920e-04 -2.091200627130445841e-02 -3.715032523935573314e-05 -1.122958324684948623e-04 -2.086799994008397413e-02 1.028555972884453914e-04 1.187020588196096405e-04 -2.100899751409710664e-02 2.978626378642043018e-04 9.699425032159117685e-06 -2.118398802799224129e-02