2.544210000000000083e+00 2.988529999999999909e+00 4.983430000000000248e+00 9.773849999999999483e+00 3.684670000000000112e+00 2.366699999999999804e+00 1.988750000000000018e+00 1.048070000000000057e+00 2.366740000000000066e+00 5.600270000000000081e+00 2.988539999999999974e+00 4.983419999999999739e+00 3.661750000000000060e+00 3.684680000000000177e+00 2.366699999999999804e+00 5.044810000000000016e+00 1.048070000000000057e+00 2.366730000000000000e+00 8.656330000000000524e+00 2.988529999999999909e+00 4.983419999999999739e+00 6.717800000000000438e+00 3.684670000000000112e+00 2.366690000000000182e+00 8.100860000000000838e+00 1.048079999999999901e+00 2.366730000000000000e+00 1.161170000000000035e+00 5.625149999999999650e+00 4.983439999999999870e+00 2.834169999999999856e+00 8.261749999999999261e+00 4.983419999999999739e+00 2.278719999999999857e+00 6.321310000000000429e+00 2.366740000000000066e+00 4.217220000000000191e+00 5.625149999999999650e+00 4.983430000000000248e+00 5.890229999999999855e+00 8.261760000000000659e+00 4.983419999999999739e+00 5.334760000000000169e+00 6.321299999999999919e+00 2.366750000000000131e+00 7.273270000000000124e+00 5.625160000000000160e+00 4.983439999999999870e+00 8.946270000000000167e+00 8.261760000000000659e+00 4.983419999999999739e+00 8.390819999999999723e+00 6.321299999999999919e+00 2.366740000000000066e+00 1.106226999999999983e+01 4.207939999999999792e+00 9.745789999999999509e+00 3.277169999999999916e+00 1.571329999999999893e+00 9.745850000000000790e+00 4.950169999999999959e+00 4.207930000000000170e+00 9.745810000000000528e+00 6.333230000000000359e+00 1.571329999999999893e+00 9.745850000000000790e+00 8.006209999999999383e+00 4.207930000000000170e+00 9.745799999999999130e+00 9.389279999999999404e+00 1.571329999999999893e+00 9.745850000000000790e+00 3.567130000000000134e+00 6.844570000000000043e+00 9.745850000000000790e+00 6.623179999999999623e+00 6.844549999999999912e+00 9.745829999999999771e+00 9.679240000000000066e+00 6.844570000000000043e+00 9.745829999999999771e+00 3.832619999999999916e+00 3.511789999999999967e+00 1.236251999999999995e+01 6.888690000000000424e+00 3.511810000000000098e+00 1.236252999999999957e+01 9.944739999999999469e+00 3.511789999999999967e+00 1.236253999999999920e+01 2.449580000000000091e+00 6.148419999999999774e+00 1.236252999999999957e+01 4.122580000000000133e+00 8.785030000000000783e+00 1.236252999999999957e+01 5.505630000000000024e+00 6.148419999999999774e+00 1.236252999999999957e+01 7.178639999999999688e+00 8.785019999999999385e+00 1.236252999999999957e+01 8.561700000000000088e+00 6.148410000000000153e+00 1.236253999999999920e+01 1.023470000000000013e+01 8.785030000000000783e+00 1.236252999999999957e+01 5.121039999999999814e+00 4.035070000000000157e+00 1.974162000000000106e+01 1.235069000000000017e+01 4.731189999999999785e+00 1.712490000000000023e+01 4.565599999999999881e+00 2.094599999999999795e+00 1.712493999999999872e+01 8.177089999999999748e+00 4.035050000000000026e+00 1.974163000000000068e+01 6.238579999999999792e+00 4.731200000000000294e+00 1.712490000000000023e+01 7.621640000000000192e+00 2.094599999999999795e+00 1.712494999999999834e+01 1.123315000000000019e+01 4.035050000000000026e+00 1.974163000000000068e+01 9.294639999999999347e+00 4.731209999999999916e+00 1.712490000000000023e+01 1.067769999999999975e+01 2.094599999999999795e+00 1.712493999999999872e+01 3.737999999999999989e+00 6.671669999999999767e+00 1.974163000000000068e+01 5.410999999999999588e+00 9.308270000000000266e+00 1.974163000000000068e+01 4.855550000000000033e+00 7.367829999999999657e+00 1.712492999999999910e+01 6.794050000000000367e+00 6.671669999999999767e+00 1.974164000000000030e+01 8.467060000000000031e+00 9.308289999999999509e+00 1.974162000000000106e+01 7.911599999999999966e+00 7.367829999999999657e+00 1.712493999999999872e+01 9.850089999999999790e+00 6.671669999999999767e+00 1.974163000000000068e+01 1.152311000000000085e+01 9.308279999999999887e+00 1.974163000000000068e+01 1.096765000000000079e+01 7.367829999999999657e+00 1.712493999999999872e+01 1.741079999999999961e+00 1.617160000000000153e+01 4.983439999999999870e+00 4.797119999999999607e+00 1.617160000000000153e+01 4.983430000000000248e+00 7.853180000000000049e+00 1.617158999999999835e+01 4.983430000000000248e+00 1.006381000000000014e+01 8.957900000000000418e+00 2.366690000000000182e+00 3.951709999999999834e+00 8.957900000000000418e+00 2.366690000000000182e+00 7.007760000000000211e+00 8.957890000000000796e+00 2.366709999999999869e+00 1.451119999999999965e+00 1.089836999999999989e+01 4.983430000000000248e+00 3.124120000000000008e+00 1.353497999999999912e+01 4.983430000000000248e+00 1.035375999999999941e+01 1.423110999999999926e+01 2.366690000000000182e+00 2.568670000000000009e+00 1.159451999999999927e+01 2.366740000000000066e+00 4.507179999999999964e+00 1.089836999999999989e+01 4.983430000000000248e+00 6.180180000000000007e+00 1.353497999999999912e+01 4.983430000000000248e+00 4.241660000000000430e+00 1.423110999999999926e+01 2.366690000000000182e+00 5.624729999999999563e+00 1.159451999999999927e+01 2.366750000000000131e+00 7.563220000000000276e+00 1.089837999999999951e+01 4.983439999999999870e+00 9.236219999999999430e+00 1.353499000000000052e+01 4.983419999999999739e+00 7.297710000000000363e+00 1.423112000000000066e+01 2.366690000000000182e+00 8.680770000000000763e+00 1.159451999999999927e+01 2.366740000000000066e+00 1.135223000000000049e+01 9.481159999999999144e+00 9.745789999999999509e+00 5.240109999999999602e+00 9.481149999999999523e+00 9.745799999999999130e+00 8.296170000000000044e+00 9.481159999999999144e+00 9.745789999999999509e+00 1.164217999999999975e+01 1.475439000000000078e+01 9.745799999999999130e+00 3.857079999999999842e+00 1.211777999999999977e+01 9.745850000000000790e+00 5.530059999999999754e+00 1.475436999999999976e+01 9.745799999999999130e+00 6.913140000000000285e+00 1.211777999999999977e+01 9.745839999999999392e+00 8.586130000000000706e+00 1.475437999999999938e+01 9.745799999999999130e+00 9.969189999999999330e+00 1.211777000000000015e+01 9.745850000000000790e+00 3.029469999999999885e+00 1.669485999999999848e+01 1.236251999999999995e+01 6.085539999999999949e+00 1.669487000000000165e+01 1.236252999999999957e+01 9.141600000000000392e+00 1.669485999999999848e+01 1.236253999999999920e+01 2.739529999999999799e+00 1.142164000000000001e+01 1.236251999999999995e+01 4.412539999999999907e+00 1.405823000000000000e+01 1.236251999999999995e+01 5.795589999999999797e+00 1.142164999999999964e+01 1.236251999999999995e+01 7.468589999999999840e+00 1.405823999999999963e+01 1.236252999999999957e+01 8.851630000000000109e+00 1.142163000000000039e+01 1.236251999999999995e+01 1.052463999999999977e+01 1.405823000000000000e+01 1.236251999999999995e+01 4.317899999999999849e+00 1.721811999999999898e+01 1.974163000000000068e+01 7.373949999999999783e+00 1.721811999999999898e+01 1.974164000000000030e+01 1.043000999999999934e+01 1.721810999999999936e+01 1.974163000000000068e+01 1.264062999999999981e+01 1.000441999999999965e+01 1.712490999999999985e+01 6.528529999999999944e+00 1.000441999999999965e+01 1.712490000000000023e+01 9.584580000000000766e+00 1.000441999999999965e+01 1.712490000000000023e+01 4.027940000000000076e+00 1.194491000000000014e+01 1.974164000000000030e+01 5.700960000000000250e+00 1.458149000000000051e+01 1.974162000000000106e+01 1.293058000000000085e+01 1.527763999999999989e+01 1.712489000000000061e+01 5.145500000000000185e+00 1.264104000000000028e+01 1.712493999999999872e+01 7.083999999999999631e+00 1.194488999999999912e+01 1.974162000000000106e+01 8.756999999999999673e+00 1.458150999999999975e+01 1.974162000000000106e+01 6.818469999999999587e+00 1.527763999999999989e+01 1.712490000000000023e+01 8.201539999999999608e+00 1.264104999999999990e+01 1.712493999999999872e+01 1.014005000000000045e+01 1.194490000000000052e+01 1.974163000000000068e+01 1.181306000000000012e+01 1.458150999999999975e+01 1.974163000000000068e+01 9.874530000000000030e+00 1.527763999999999989e+01 1.712489000000000061e+01 1.125759000000000043e+01 1.264104999999999990e+01 1.712492999999999910e+01 7.384100000000000108e-01 2.018310000000000048e+00 3.675060000000000215e+00 1.041793000000000013e+01 3.945489999999999942e+00 6.059020000000000294e+00 1.900179999999999980e+00 2.727720000000000145e+00 1.291290000000000049e+00 7.917650000000000077e+00 5.887570000000000192e+00 8.670370000000000132e+00 2.411439999999999806e+00 4.654930000000000234e+00 3.675129999999999786e+00 2.632849999999999913e+00 1.308899999999999952e+00 6.059099999999999930e+00 3.794459999999999944e+00 2.018320000000000114e+00 3.675050000000000150e+00 4.305830000000000268e+00 3.945489999999999942e+00 6.059029999999999916e+00 4.956229999999999691e+00 2.727710000000000079e+00 1.291279999999999983e+00 8.428879999999999484e+00 7.814799999999999969e+00 1.105415999999999954e+01 5.467500000000000249e+00 4.654919999999999725e+00 3.675129999999999786e+00 5.688900000000000290e+00 1.308890000000000109e+00 6.059090000000000309e+00 6.850520000000000387e+00 2.018310000000000048e+00 3.675060000000000215e+00 7.361889999999999823e+00 3.945479999999999876e+00 6.059029999999999916e+00 8.012269999999999115e+00 2.727720000000000145e+00 1.291290000000000049e+00 4.861600000000000144e+00 5.887550000000000061e+00 8.670370000000000132e+00 8.523550000000000182e+00 4.654919999999999725e+00 3.675139999999999851e+00 8.744949999999999335e+00 1.308890000000000109e+00 6.059090000000000309e+00 1.028359999999999941e+00 7.291529999999999845e+00 3.675060000000000215e+00 5.171299999999999786e-01 5.364309999999999690e+00 1.291269999999999918e+00 2.922789999999999999e+00 6.582119999999999749e+00 6.059090000000000309e+00 4.084419999999999717e+00 7.291529999999999845e+00 3.675060000000000215e+00 3.573189999999999866e+00 5.364289999999999559e+00 1.291260000000000074e+00 5.978850000000000442e+00 6.582110000000000127e+00 6.059090000000000309e+00 7.140480000000000160e+00 7.291540000000000354e+00 3.675050000000000150e+00 6.629229999999999734e+00 5.364300000000000068e+00 1.291269999999999918e+00 9.034909999999999997e+00 6.582130000000000258e+00 6.059090000000000309e+00 2.026829999999999909e+00 2.541570000000000107e+00 1.105415999999999954e+01 3.188579999999999970e+00 3.250980000000000203e+00 8.670370000000000132e+00 5.372840000000000060e+00 7.814799999999999969e+00 1.105414999999999992e+01 3.699850000000000083e+00 5.178189999999999849e+00 1.105424000000000007e+01 5.082869999999999777e+00 2.541570000000000107e+00 1.105415999999999954e+01 6.244629999999999903e+00 3.250980000000000203e+00 8.670389999999999375e+00 1.805539999999999923e+00 5.887550000000000061e+00 8.670360000000000511e+00 6.755910000000000082e+00 5.178180000000000227e+00 1.105423000000000044e+01 8.138920000000000599e+00 2.541580000000000172e+00 1.105415999999999954e+01 9.300700000000000855e+00 3.250980000000000203e+00 8.670370000000000132e+00 2.316780000000000062e+00 7.814799999999999969e+00 1.105414999999999992e+01 9.811970000000000525e+00 5.178200000000000358e+00 1.105424000000000007e+01 2.190119999999999845e+00 8.000939999999999941e+00 1.291279999999999983e+00 5.246190000000000353e+00 8.000959999999999184e+00 1.291269999999999918e+00 8.302239999999999398e+00 8.000939999999999941e+00 1.291269999999999918e+00 3.478549999999999809e+00 8.524210000000000065e+00 8.670379999999999754e+00 6.534600000000000186e+00 8.524200000000000443e+00 8.670379999999999754e+00 9.590650000000000119e+00 8.524219999999999686e+00 8.670379999999999754e+00 1.170636000000000010e+01 4.468750000000000000e+00 1.343814000000000064e+01 3.921260000000000190e+00 1.832170000000000076e+00 1.343820000000000014e+01 5.594260000000000232e+00 4.468740000000000379e+00 1.343811999999999962e+01 6.977310000000000123e+00 1.832149999999999945e+00 1.343820000000000014e+01 8.650299999999999656e+00 4.468759999999999621e+00 1.343814000000000064e+01 1.003336999999999968e+01 1.832160000000000011e+00 1.343819000000000052e+01 4.211210000000000342e+00 7.105389999999999873e+00 1.343817999999999913e+01 7.267260000000000275e+00 7.105380000000000251e+00 1.343820000000000014e+01 1.032332000000000072e+01 7.105389999999999873e+00 1.343819000000000052e+01 3.315230000000000121e+00 3.064830000000000165e+00 1.843325000000000102e+01 1.299478000000000044e+01 4.992020000000000124e+00 2.081722999999999857e+01 4.477000000000000313e+00 3.774239999999999817e+00 1.604948999999999870e+01 1.161172999999999966e+01 7.628630000000000244e+00 2.081728999999999985e+01 4.988269999999999982e+00 5.701450000000000351e+00 1.843335000000000079e+01 5.209679999999999644e+00 2.355420000000000069e+00 2.081729999999999947e+01 6.371299999999999741e+00 3.064839999999999787e+00 1.843325000000000102e+01 6.882670000000000066e+00 4.992020000000000124e+00 2.081721999999999895e+01 7.533059999999999867e+00 3.774239999999999817e+00 1.604947999999999908e+01 9.206070000000000420e+00 6.410820000000000185e+00 1.604945999999999984e+01 8.044320000000000803e+00 5.701459999999999972e+00 1.843333000000000155e+01 8.265729999999999578e+00 2.355420000000000069e+00 2.081728999999999985e+01 9.427350000000000563e+00 3.064830000000000165e+00 1.843326000000000064e+01 9.938729999999999620e+00 4.992009999999999614e+00 2.081722999999999857e+01 1.058910999999999980e+01 3.774239999999999817e+00 1.604947999999999908e+01 9.717299999999999827e+00 8.338050000000000850e+00 1.843325000000000102e+01 1.110036999999999985e+01 5.701439999999999841e+00 1.843334000000000117e+01 1.132178000000000040e+01 2.355420000000000069e+00 2.081729999999999947e+01 3.605189999999999895e+00 8.338060000000000471e+00 1.843325000000000102e+01 3.093960000000000043e+00 6.410809999999999675e+00 1.604946999999999946e+01 5.499629999999999797e+00 7.628639999999999866e+00 2.081729999999999947e+01 6.661260000000000403e+00 8.338050000000000850e+00 1.843326000000000064e+01 6.150009999999999977e+00 6.410820000000000185e+00 1.604947999999999908e+01 8.555690000000000239e+00 7.628650000000000375e+00 2.081728999999999985e+01 4.766949999999999577e+00 9.047470000000000567e+00 1.604947999999999908e+01 7.823019999999999641e+00 9.047480000000000189e+00 1.604947999999999908e+01 1.087906000000000084e+01 9.047470000000000567e+00 1.604948999999999870e+01 1.070790000000000042e+01 9.218709999999999738e+00 6.059020000000000294e+00 1.039187000000000083e+01 1.572464000000000084e+01 1.105423000000000044e+01 2.701400000000000023e+00 9.928140000000000853e+00 3.675139999999999851e+00 4.595780000000000420e+00 9.218709999999999738e+00 6.059029999999999916e+00 8.207610000000000738e+00 1.116076999999999941e+01 8.670360000000000511e+00 5.757450000000000401e+00 9.928150000000000475e+00 3.675149999999999917e+00 7.651839999999999975e+00 9.218709999999999738e+00 6.059020000000000294e+00 9.880589999999999762e+00 1.379742000000000068e+01 8.670379999999999754e+00 8.813499999999999446e+00 9.928150000000000475e+00 3.675129999999999786e+00 1.318319999999999936e+00 1.256475000000000009e+01 3.675050000000000150e+00 1.099784999999999968e+01 1.449192999999999998e+01 6.059020000000000294e+00 2.480080000000000062e+00 1.327417999999999942e+01 1.291290000000000049e+00 8.070800000000000196e-01 1.063752000000000031e+01 1.291269999999999918e+00 2.991340000000000110e+00 1.520137000000000072e+01 3.675149999999999917e+00 3.212750000000000217e+00 1.185534999999999961e+01 6.059090000000000309e+00 4.374380000000000379e+00 1.256475000000000009e+01 3.675040000000000084e+00 4.885740000000000194e+00 1.449192999999999998e+01 6.059029999999999916e+00 5.536120000000000374e+00 1.327416000000000018e+01 1.291290000000000049e+00 3.863140000000000018e+00 1.063752000000000031e+01 1.291269999999999918e+00 6.047399999999999665e+00 1.520137000000000072e+01 3.675149999999999917e+00 6.268799999999999706e+00 1.185533999999999999e+01 6.059099999999999930e+00 7.430430000000000312e+00 1.256475999999999971e+01 3.675060000000000215e+00 7.941790000000000127e+00 1.449192999999999998e+01 6.059040000000000425e+00 8.592190000000000438e+00 1.327416000000000018e+01 1.291279999999999983e+00 6.919190000000000396e+00 1.063752000000000031e+01 1.291260000000000074e+00 9.103450000000000486e+00 1.520137000000000072e+01 3.675139999999999851e+00 9.324859999999999260e+00 1.185533999999999999e+01 6.059090000000000309e+00 8.718840000000000146e+00 1.308802000000000021e+01 1.105415999999999954e+01 3.989799999999999791e+00 1.045140999999999920e+01 1.105424000000000007e+01 7.335820000000000007e+00 1.572461999999999982e+01 1.105424000000000007e+01 7.045860000000000234e+00 1.045142000000000060e+01 1.105423000000000044e+01 5.151550000000000296e+00 1.116078000000000081e+01 8.670370000000000132e+00 1.010191000000000017e+01 1.045142000000000060e+01 1.105423000000000044e+01 2.606730000000000214e+00 1.308801000000000059e+01 1.105415999999999954e+01 3.768489999999999895e+00 1.379743000000000031e+01 8.670389999999999375e+00 2.095509999999999984e+00 1.116078000000000081e+01 8.670360000000000511e+00 4.279759999999999565e+00 1.572462999999999944e+01 1.105424999999999969e+01 5.662779999999999703e+00 1.308802000000000021e+01 1.105414000000000030e+01 6.824550000000000338e+00 1.379743000000000031e+01 8.670379999999999754e+00 1.097040000000000015e+00 1.591075000000000017e+01 1.291269999999999918e+00 4.153089999999999726e+00 1.591074000000000055e+01 1.291269999999999918e+00 7.209150000000000169e+00 1.591075000000000017e+01 1.291279999999999983e+00 2.385450000000000070e+00 1.643401000000000067e+01 8.670370000000000132e+00 5.441499999999999559e+00 1.643400000000000105e+01 8.670370000000000132e+00 8.497560000000000002e+00 1.643400000000000105e+01 8.670379999999999754e+00 1.199629999999999974e+01 9.741979999999999862e+00 1.343811999999999962e+01 5.884210000000000385e+00 9.741979999999999862e+00 1.343814000000000064e+01 8.940260000000000318e+00 9.741970000000000240e+00 1.343812999999999924e+01 1.228626000000000040e+01 1.501519000000000048e+01 1.343811999999999962e+01 4.501159999999999606e+00 1.237861000000000011e+01 1.343820000000000014e+01 6.174150000000000027e+00 1.501520000000000010e+01 1.343811999999999962e+01 7.557229999999999670e+00 1.237861000000000011e+01 1.343820000000000014e+01 9.230219999999999203e+00 1.501520000000000010e+01 1.343811999999999962e+01 1.061326000000000036e+01 1.237861000000000011e+01 1.343819000000000052e+01 1.328472999999999971e+01 1.026523000000000074e+01 2.081722999999999857e+01 1.190168000000000070e+01 1.290185999999999922e+01 2.081728999999999985e+01 5.278220000000000134e+00 1.097467999999999932e+01 1.843333000000000155e+01 7.172609999999999708e+00 1.026523000000000074e+01 2.081722999999999857e+01 1.168027999999999977e+01 1.624789000000000172e+01 1.843333000000000155e+01 8.334270000000000067e+00 1.097466999999999970e+01 1.843333000000000155e+01 1.022865999999999964e+01 1.026523000000000074e+01 2.081722999999999857e+01 9.496019999999999683e+00 1.168403999999999954e+01 1.604946999999999946e+01 1.139034000000000013e+01 1.097466000000000008e+01 1.843334000000000117e+01 3.895140000000000047e+00 1.361128000000000071e+01 1.843326000000000064e+01 1.357466999999999935e+01 1.553846000000000060e+01 2.081724000000000174e+01 5.056899999999999729e+00 1.432067999999999941e+01 1.604947999999999908e+01 3.383919999999999817e+00 1.168403999999999954e+01 1.604945999999999984e+01 5.568179999999999907e+00 1.624790000000000134e+01 1.843333000000000155e+01 5.789570000000000327e+00 1.290184999999999960e+01 2.081728999999999985e+01 6.951200000000000045e+00 1.361128000000000071e+01 1.843325000000000102e+01 7.462559999999999860e+00 1.553846000000000060e+01 2.081721999999999895e+01 8.112959999999999283e+00 1.432070000000000043e+01 1.604946999999999946e+01 6.439980000000000260e+00 1.168403999999999954e+01 1.604945999999999984e+01 8.624240000000000350e+00 1.624790000000000134e+01 1.843335000000000079e+01 8.845639999999999503e+00 1.290185999999999922e+01 2.081729999999999947e+01 1.000726000000000049e+01 1.361128000000000071e+01 1.843326000000000064e+01 1.051862000000000030e+01 1.553844999999999921e+01 2.081721999999999895e+01 1.116901999999999973e+01 1.432069000000000081e+01 1.604947999999999908e+01 3.673869999999999969e+00 1.695726000000000155e+01 1.604947999999999908e+01 6.729910000000000281e+00 1.695726000000000155e+01 1.604945999999999984e+01 9.785970000000000724e+00 1.695726000000000155e+01 1.604945999999999984e+01