-2.772053181320000022e+03
-2.771952579459999924e+03
-2.771793175069999961e+03
-2.771576140950000081e+03
-2.771303221550000217e+03
-2.770976878399999805e+03
-2.770600003779999952e+03
-2.770176178369999889e+03
-2.769709477020000122e+03
-2.769204415080000217e+03
