2.360949999999999993e-01 3.735299999999999732e-02 -2.533400000000000096e-01 -2.366890000000000105e-01 -3.632799999999999918e-02 2.552220000000000044e-01 -2.355829999999999869e-01 -3.757800000000000029e-02 2.542170000000000263e-01 2.361810000000000020e-01 3.743300000000000100e-02 -2.535669999999999868e-01 -2.371330000000000104e-01 -3.669399999999999745e-02 2.556789999999999896e-01 -2.363510000000000055e-01 -3.831899999999999890e-02 2.545720000000000205e-01 2.353179999999999994e-01 3.803700000000000137e-02 -2.519730000000000025e-01 -2.362470000000000125e-01 -3.612800000000000039e-02 2.549690000000000012e-01 -2.365730000000000055e-01 -3.726299999999999751e-02 2.546939999999999760e-01 2.347430000000000072e-01 3.696599999999999886e-02 -2.527949999999999919e-01 2.361509999999999998e-01 3.690600000000000130e-02 -2.534819999999999851e-01 -2.362589999999999968e-01 -3.773399999999999671e-02 2.551149999999999807e-01 2.348750000000000004e-01 3.649899999999999672e-02 -2.534080000000000221e-01 2.357069999999999999e-01 3.665600000000000108e-02 -2.533309999999999729e-01 -2.360220000000000096e-01 -3.751199999999999674e-02 2.541320000000000245e-01 2.359590000000000021e-01 3.646100000000000035e-02 -2.528469999999999884e-01 2.356030000000000069e-01 3.600600000000000328e-02 -2.535169999999999924e-01 -2.366709999999999925e-01 -3.740399999999999975e-02 2.542209999999999748e-01 -2.366870000000000085e-01 -3.677400000000000113e-02 2.558279999999999998e-01 -2.356560000000000044e-01 -3.765500000000000097e-02 2.542099999999999915e-01 -2.374149999999999872e-01 -3.657500000000000334e-02 2.561430000000000096e-01 -2.363840000000000108e-01 -3.843699999999999894e-02 2.548019999999999730e-01 -2.361620000000000108e-01 -3.608399999999999802e-02 2.550769999999999982e-01 -2.365200000000000080e-01 -3.725699999999999845e-02 2.546089999999999742e-01 -2.359430000000000138e-01 -3.774899999999999783e-02 2.554739999999999789e-01 -2.362559999999999938e-01 -3.773699999999999971e-02 2.550640000000000129e-01 -2.369650000000000090e-01 -3.740700000000000275e-02 2.547280000000000100e-01 2.363570000000000115e-01 3.715199999999999753e-02 -2.535979999999999901e-01 2.360690000000000011e-01 3.712100000000000122e-02 -2.538619999999999766e-01 2.356779999999999986e-01 3.787299999999999695e-02 -2.527130000000000210e-01 2.351800000000000002e-01 3.654099999999999709e-02 -2.532130000000000214e-01 2.363679999999999948e-01 3.689900000000000124e-02 -2.539980000000000016e-01 2.351169999999999927e-01 3.611400000000000027e-02 -2.536789999999999878e-01 2.361520000000000008e-01 3.690700000000000230e-02 -2.539290000000000158e-01 2.355839999999999879e-01 3.687599999999999906e-02 -2.533119999999999816e-01 2.354269999999999974e-01 3.642800000000000205e-02 -2.538090000000000068e-01 2.362569999999999948e-01 3.705800000000000066e-02 -2.535569999999999768e-01 -2.368929999999999925e-01 -3.631399999999999906e-02 2.554799999999999849e-01 -2.358190000000000008e-01 -3.784499999999999670e-02 2.542599999999999860e-01 2.363270000000000093e-01 3.740600000000000175e-02 -2.541039999999999965e-01 -2.372620000000000007e-01 -3.664599999999999802e-02 2.557209999999999761e-01 -2.361900000000000110e-01 -3.870300000000000129e-02 2.542320000000000135e-01 2.356920000000000126e-01 3.804099999999999843e-02 -2.525850000000000040e-01 -2.363109999999999933e-01 -3.648799999999999960e-02 2.550140000000000184e-01 -2.366830000000000045e-01 -3.772699999999999665e-02 2.543469999999999898e-01 2.349539999999999962e-01 3.702400000000000135e-02 -2.529609999999999914e-01 2.362440000000000095e-01 3.678300000000000319e-02 -2.538300000000000001e-01 -2.363139999999999963e-01 -3.755300000000000304e-02 2.554199999999999804e-01 2.346159999999999912e-01 3.692999999999999755e-02 -2.538030000000000008e-01 2.357110000000000039e-01 3.694800000000000167e-02 -2.537249999999999783e-01 -2.364900000000000058e-01 -3.752199999999999980e-02 2.546769999999999867e-01 2.359900000000000053e-01 3.673400000000000276e-02 -2.531280000000000197e-01 2.353310000000000124e-01 3.620400000000000007e-02 -2.535299999999999776e-01 -2.365339999999999943e-01 -3.740600000000000175e-02 2.543750000000000178e-01 2.355399999999999994e-01 3.748800000000000049e-02 -2.532349999999999879e-01 2.350609999999999922e-01 3.679099999999999732e-02 -2.530930000000000124e-01 2.358290000000000108e-01 3.745600000000000318e-02 -2.530279999999999752e-01 -2.369340000000000057e-01 -3.856899999999999912e-02 2.552320000000000144e-01 -2.372620000000000007e-01 -3.735800000000000232e-02 2.552050000000000152e-01 -2.363069999999999893e-01 -3.752599999999999686e-02 2.545749999999999957e-01 2.358830000000000093e-01 3.770400000000000140e-02 -2.536700000000000066e-01 2.364370000000000083e-01 3.639099999999999974e-02 -2.529970000000000274e-01 -2.370809999999999862e-01 -3.696300000000000280e-02 2.556510000000000171e-01 -2.354539999999999966e-01 -3.701299999999999729e-02 2.538329999999999753e-01 2.351729999999999932e-01 3.819399999999999878e-02 -2.520749999999999935e-01 2.355140000000000011e-01 3.662599999999999884e-02 -2.527369999999999894e-01 -2.373659999999999937e-01 -3.678599999999999925e-02 2.552690000000000237e-01 -2.361459999999999948e-01 -3.726100000000000245e-02 2.542909999999999893e-01 2.358119999999999938e-01 3.733500000000000013e-02 -2.534980000000000011e-01 2.352660000000000029e-01 3.638899999999999774e-02 -2.532039999999999846e-01 -2.369789999999999952e-01 -3.722999999999999921e-02 2.562679999999999958e-01 -2.368399999999999950e-01 -3.717399999999999871e-02 2.548860000000000015e-01 -2.370990000000000042e-01 -3.794800000000000256e-02 2.556590000000000251e-01 -2.371729999999999949e-01 -3.680400000000000338e-02 2.554330000000000211e-01 -2.361030000000000073e-01 -3.777200000000000002e-02 2.554480000000000084e-01 -2.369090000000000085e-01 -3.721499999999999808e-02 2.557690000000000241e-01 -2.354980000000000129e-01 -3.669100000000000139e-02 2.540459999999999940e-01 -2.372319999999999984e-01 -3.673599999999999782e-02 2.552989999999999982e-01 -2.363399999999999945e-01 -3.685999999999999693e-02 2.547389999999999932e-01 -2.368389999999999940e-01 -3.705300000000000260e-02 2.564870000000000205e-01 -2.365259999999999863e-01 -3.695699999999999680e-02 2.552420000000000244e-01 2.356340000000000101e-01 3.727699999999999764e-02 -2.534549999999999859e-01 2.350540000000000129e-01 3.682900000000000063e-02 -2.532249999999999779e-01 2.356969999999999898e-01 3.755700000000000011e-02 -2.532880000000000131e-01 2.356610000000000094e-01 3.800200000000000106e-02 -2.535830000000000028e-01 2.360079999999999956e-01 3.659500000000000253e-02 -2.530419999999999892e-01 2.351250000000000007e-01 3.837000000000000133e-02 -2.520640000000000103e-01 2.355490000000000084e-01 3.668300000000000033e-02 -2.529899999999999927e-01 2.357569999999999943e-01 3.778200000000000308e-02 -2.533190000000000164e-01 2.350750000000000062e-01 3.663799999999999696e-02 -2.535879999999999801e-01 2.354870000000000019e-01 3.762599999999999972e-02 -2.536599999999999966e-01 2.352640000000000009e-01 3.689800000000000024e-02 -2.536689999999999778e-01 2.355690000000000006e-01 3.748800000000000049e-02 -2.535910000000000108e-01 -2.368149999999999977e-01 -3.802699999999999830e-02 2.549159999999999759e-01 -2.373929999999999929e-01 -3.703100000000000142e-02 2.552749999999999742e-01 -2.363159999999999983e-01 -3.728100000000000164e-02 2.549399999999999999e-01 2.359650000000000081e-01 3.741599999999999787e-02 -2.542309999999999848e-01 2.360540000000000138e-01 3.651399999999999785e-02 -2.532150000000000234e-01 -2.371350000000000124e-01 -3.751100000000000267e-02 2.555250000000000021e-01 -2.359080000000000066e-01 -3.706099999999999672e-02 2.539489999999999803e-01 2.351719999999999922e-01 3.817000000000000254e-02 -2.522949999999999915e-01 2.355220000000000091e-01 3.617800000000000182e-02 -2.531209999999999849e-01 -2.369640000000000080e-01 -3.734900000000000025e-02 2.549429999999999752e-01 -2.359479999999999911e-01 -3.720899999999999902e-02 2.542119999999999935e-01 2.356550000000000034e-01 3.731299999999999895e-02 -2.536990000000000078e-01 2.350669999999999982e-01 3.633800000000000224e-02 -2.542320000000000135e-01 -2.367479999999999862e-01 -3.727899999999999964e-02 2.559400000000000008e-01 -2.365279999999999883e-01 -3.742999999999999799e-02 2.547240000000000060e-01 1.369999999999999961e-04 -1.124999999999999915e-03 1.082999999999999978e-03 -1.943661000000000083e+00 -4.535799999999999832e-01 1.094484000000000012e+00 1.944563000000000041e+00 4.524779999999999913e-01 -1.096918999999999977e+00 1.944301999999999975e+00 4.544529999999999959e-01 -1.096645000000000092e+00 3.759999999999999779e-04 -7.339999999999999520e-04 -7.609999999999999577e-04 -1.943785000000000096e+00 -4.537269999999999914e-01 1.092308999999999974e+00 2.220000000000000022e-04 -1.765999999999999992e-03 1.304000000000000038e-03 -1.944120000000000070e+00 -4.529509999999999925e-01 1.094640999999999975e+00 1.944714000000000054e+00 4.526080000000000103e-01 -1.097383999999999915e+00 9.100000000000000287e-05 -1.162000000000000055e-03 7.849999999999999990e-04 3.899999999999999929e-04 -5.899999999999999754e-05 -3.009999999999999980e-04 -1.943443000000000032e+00 -4.536069999999999824e-01 1.092530999999999919e+00 5.559999999999999621e-04 -1.456999999999999962e-03 8.350000000000000217e-04 -1.943596000000000101e+00 -4.530319999999999903e-01 1.094257000000000035e+00 1.945219999999999949e+00 4.528860000000000108e-01 -1.096948999999999952e+00 1.943758000000000097e+00 4.545000000000000151e-01 -1.096481000000000039e+00 6.030000000000000204e-04 -3.009999999999999980e-04 -1.030000000000000100e-03 -1.943267000000000078e+00 -4.538800000000000057e-01 1.092430999999999930e+00 2.000000000000000096e-04 -1.498999999999999898e-03 1.994999999999999812e-03 1.943943999999999894e+00 4.526060000000000083e-01 -1.096200999999999981e+00 -1.943214999999999915e+00 -4.522329999999999961e-01 1.093823999999999907e+00 -2.979999999999999793e-04 -3.620000000000000171e-04 1.735999999999999913e-03 1.943754999999999900e+00 4.531060000000000088e-01 -1.095884999999999998e+00 -1.943011000000000044e+00 -4.519610000000000016e-01 1.093920999999999921e+00 -7.799999999999999859e-05 -1.033999999999999980e-03 1.670000000000000043e-03 1.944449000000000094e+00 4.532200000000000117e-01 -1.095703000000000094e+00 -1.943827999999999889e+00 -4.525870000000000171e-01 1.093498000000000081e+00 -2.320000000000000014e-04 -4.000000000000000192e-04 1.262000000000000101e-03 1.944565000000000099e+00 4.527019999999999933e-01 -1.097135999999999889e+00 -6.939999999999999555e-04 -7.879999999999999635e-04 1.634000000000000036e-03 4.769999999999999934e-04 -1.119999999999999983e-04 -2.849999999999999886e-04 4.319999999999999838e-04 -1.036999999999999944e-03 1.556000000000000091e-03 1.944898000000000016e+00 4.529599999999999738e-01 -1.098006000000000038e+00 1.943759000000000015e+00 4.544980000000000131e-01 -1.096707000000000098e+00 3.519999999999999908e-04 5.130000000000000011e-04 3.170000000000000075e-04 6.179999999999999513e-04 -1.214999999999999934e-03 1.255999999999999955e-03 1.944607999999999892e+00 4.528590000000000115e-01 -1.096899000000000068e+00 -6.799999999999999946e-05 -1.373000000000000088e-03 1.758999999999999930e-03 2.700000000000000035e-04 3.000000000000000076e-05 -3.049999999999999868e-04 1.944855000000000000e+00 4.533070000000000155e-01 -1.096287999999999929e+00 1.944903999999999966e+00 4.525170000000000026e-01 -1.095923999999999898e+00 1.944187000000000110e+00 4.528079999999999883e-01 -1.095712000000000019e+00 1.944944000000000006e+00 4.539719999999999867e-01 -1.097944999999999949e+00 1.944593000000000016e+00 4.535440000000000027e-01 -1.097955000000000014e+00 1.944358000000000031e+00 4.534549999999999970e-01 -1.097542999999999935e+00 -1.943497999999999948e+00 -4.525379999999999958e-01 1.096211999999999964e+00 -1.943092000000000041e+00 -4.519710000000000116e-01 1.094082999999999917e+00 -1.944029999999999925e+00 -4.518739999999999979e-01 1.096306000000000003e+00 -1.943090999999999902e+00 -4.517760000000000109e-01 1.094198999999999922e+00 -1.943824999999999914e+00 -4.525210000000000066e-01 1.096049000000000051e+00 -1.943497999999999948e+00 -4.519369999999999776e-01 1.094427000000000039e+00 -1.943230999999999931e+00 -4.527459999999999818e-01 1.095569999999999933e+00 -1.943178000000000072e+00 -4.528820000000000068e-01 1.095428999999999986e+00 -1.943804000000000087e+00 -4.530259999999999843e-01 1.095321999999999907e+00 1.240000000000000054e-04 -1.900000000000000105e-04 2.220999999999999884e-03 -1.943910999999999945e+00 -4.541789999999999994e-01 1.095752000000000059e+00 1.944587000000000065e+00 4.537160000000000082e-01 -1.097053999999999974e+00 -1.943834000000000062e+00 -4.539170000000000149e-01 1.093933999999999962e+00 4.850000000000000253e-04 -3.350000000000000113e-04 -1.116999999999999937e-03 -1.943356000000000083e+00 -4.527019999999999933e-01 1.093876999999999988e+00 2.069999999999999900e-04 -1.026999999999999918e-03 2.516000000000000007e-03 -1.944568999999999992e+00 -4.542349999999999999e-01 1.096020999999999912e+00 1.944212000000000051e+00 4.539009999999999989e-01 -1.097418999999999922e+00 1.943966000000000083e+00 4.540120000000000267e-01 -1.096845000000000070e+00 3.829999999999999854e-04 -1.959999999999999937e-04 -4.400000000000000157e-04 -1.943650000000000100e+00 -4.530759999999999788e-01 1.094152000000000013e+00 2.010000000000000068e-04 -8.790000000000000070e-04 2.090999999999999977e-03 -1.944083000000000006e+00 -4.539340000000000042e-01 1.095517999999999992e+00 1.944423000000000012e+00 4.539030000000000009e-01 -1.096934000000000076e+00 -2.049999999999999956e-04 -1.203999999999999992e-03 5.479999999999999845e-04 6.390000000000000280e-04 -1.710000000000000094e-04 -9.700000000000000505e-04 -1.943362000000000034e+00 -4.527630000000000265e-01 1.093785999999999925e+00 -2.000000000000000164e-05 -2.073000000000000190e-03 1.116000000000000021e-03 1.943901000000000101e+00 4.538490000000000024e-01 -1.097080000000000055e+00 -1.943688000000000082e+00 -4.537769999999999859e-01 1.094100000000000072e+00 -8.350000000000000217e-04 -8.099999999999999561e-04 5.339999999999999695e-04 1.943664999999999976e+00 4.538519999999999777e-01 -1.097059999999999924e+00 -1.943392999999999926e+00 -4.536689999999999889e-01 1.094589000000000034e+00 1.944657999999999998e+00 4.524900000000000033e-01 -1.097693999999999948e+00 1.944374000000000047e+00 4.518349999999999866e-01 -1.097998999999999947e+00 1.944584000000000090e+00 4.521999999999999909e-01 -1.097739000000000020e+00 -1.943907999999999969e+00 -4.528200000000000003e-01 1.095053000000000054e+00 8.000000000000000654e-05 -2.930000000000000204e-04 -1.706000000000000051e-03 9.730000000000000151e-04 -3.099999999999999999e-04 -1.000000000000000048e-04 -1.943656999999999968e+00 -4.526140000000000163e-01 1.094654999999999934e+00 1.943953000000000042e+00 4.544170000000000154e-01 -1.097027999999999892e+00 4.910000000000000085e-04 3.289999999999999739e-04 1.999999999999999909e-06 -1.943907999999999969e+00 -4.526109999999999856e-01 1.094859000000000027e+00 1.944385999999999948e+00 4.529210000000000180e-01 -1.097811000000000092e+00 4.560000000000000251e-04 -5.670000000000000127e-04 3.970000000000000005e-04 -3.170000000000000075e-04 7.119999999999999593e-04 2.118999999999999790e-03 -1.943581000000000003e+00 -4.524440000000000128e-01 1.094888000000000083e+00 1.945014999999999938e+00 4.541129999999999889e-01 -1.096063999999999927e+00 1.944153000000000020e+00 4.549779999999999935e-01 -1.095426000000000011e+00 6.419999999999999925e-04 -1.830000000000000029e-04 -8.400000000000000348e-04 -1.943313000000000068e+00 -4.526979999999999893e-01 1.093642999999999921e+00 -2.130000000000000003e-04 1.910000000000000077e-04 1.590999999999999966e-03 -1.944085999999999981e+00 -4.533400000000000207e-01 1.094478000000000062e+00 1.944463999999999970e+00 4.540129999999999999e-01 -1.096443999999999974e+00 1.944226000000000010e+00 4.553960000000000230e-01 -1.094494999999999996e+00 7.919999999999999523e-04 -8.419999999999999750e-04 -2.280000000000000126e-04 -1.943464999999999998e+00 -4.529590000000000005e-01 1.093758000000000008e+00 -3.379999999999999758e-04 4.600000000000000004e-05 1.458000000000000095e-03 -1.942979000000000012e+00 -4.529839999999999978e-01 1.094349000000000016e+00 1.944148999999999905e+00 4.542379999999999751e-01 -1.095879999999999965e+00 1.943756000000000039e+00 4.548829999999999818e-01 -1.094456000000000095e+00 2.790000000000000054e-04 5.800000000000000034e-05 -1.949999999999999965e-04 -1.943773999999999891e+00 -4.521859999999999769e-01 1.093757000000000090e+00 -1.299999999999999920e-05 -7.680000000000000195e-04 -4.169999999999999987e-04 9.470000000000000336e-04 -7.720000000000000083e-04 -1.430000000000000064e-03 8.880000000000000089e-04 -9.110000000000000259e-04 -1.430000000000000064e-03 3.490000000000000263e-04 -3.480000000000000020e-04 -1.149000000000000065e-03 1.943932999999999911e+00 4.544159999999999866e-01 -1.096707000000000098e+00 9.280000000000000054e-04 -1.007999999999999998e-03 -1.048000000000000103e-03 -2.599999999999999772e-04 -2.820000000000000241e-04 1.240000000000000054e-04 1.944652999999999965e+00 4.529369999999999785e-01 -1.097634999999999916e+00 1.944002999999999926e+00 4.544199999999999906e-01 -1.097450999999999954e+00 4.279999999999999950e-04 -3.130000000000000187e-04 -2.347000000000000128e-03 4.500000000000000283e-05 -9.659999999999999533e-04 -2.530000000000000239e-04 1.944291999999999909e+00 4.526450000000000196e-01 -1.097900000000000098e+00 1.944263999999999992e+00 4.539710000000000134e-01 -1.096135999999999999e+00 1.943775999999999948e+00 4.540870000000000184e-01 -1.095893999999999924e+00 1.944177999999999962e+00 4.545100000000000251e-01 -1.096227000000000062e+00 1.944048999999999916e+00 4.530359999999999943e-01 -1.096934000000000076e+00 1.943715000000000082e+00 4.531450000000000200e-01 -1.096306999999999920e+00 1.944425000000000070e+00 4.535569999999999879e-01 -1.096781999999999924e+00 -1.943686000000000025e+00 -4.534719999999999862e-01 1.095968999999999971e+00 -1.943939000000000084e+00 -4.533190000000000275e-01 1.095777000000000001e+00 -1.943605000000000027e+00 -4.536379999999999857e-01 1.095761999999999903e+00 -1.943435000000000024e+00 -4.522249999999999881e-01 1.095698999999999979e+00 -1.943049999999999944e+00 -4.534719999999999862e-01 1.093747999999999942e+00 -1.943764000000000047e+00 -4.527050000000000241e-01 1.095339999999999980e+00 -1.943073000000000050e+00 -4.536049999999999804e-01 1.094138999999999973e+00 -1.943449999999999900e+00 -4.524029999999999996e-01 1.095512999999999959e+00 -1.943116000000000065e+00 -4.533349999999999880e-01 1.094300000000000050e+00 -1.944083000000000006e+00 -4.531879999999999797e-01 1.094694000000000056e+00 -1.943958999999999993e+00 -4.520230000000000081e-01 1.093639000000000028e+00 6.650000000000000095e-04 -6.229999999999999644e-04 -1.003999999999999901e-03 -1.943891000000000036e+00 -4.528710000000000235e-01 1.094435000000000047e+00 1.500000000000000038e-05 3.780000000000000265e-04 7.029999999999999574e-04 3.150000000000000131e-04 -1.500000000000000038e-05 -5.869999999999999567e-04 -1.943651999999999935e+00 -4.529630000000000045e-01 1.094486000000000070e+00 1.943991999999999942e+00 4.531370000000000120e-01 -1.096363999999999894e+00 3.849999999999999798e-04 -2.939999999999999905e-04 -6.160000000000000111e-04 -2.979999999999999793e-04 3.800000000000000209e-04 2.060999999999999898e-03 -1.943154999999999966e+00 -4.517769999999999841e-01 1.095155000000000101e+00 1.944488999999999912e+00 4.531629999999999825e-01 -1.096535999999999955e+00 1.943748999999999949e+00 4.532260000000000177e-01 -1.096618000000000093e+00 3.200000000000000262e-04 1.939999999999999993e-04 6.539999999999999590e-04 -1.943222999999999923e+00 -4.519810000000000216e-01 1.093118000000000034e+00 -4.110000000000000155e-04 3.080000000000000055e-04 1.843999999999999936e-03 -1.944010000000000016e+00 -4.521600000000000064e-01 1.095221999999999918e+00 1.944153999999999938e+00 4.529710000000000125e-01 -1.096643999999999952e+00 1.943619999999999903e+00 4.532990000000000075e-01 -1.096006999999999953e+00 5.789999999999999791e-04 -1.600000000000000131e-04 8.869999999999999846e-04 -1.943569000000000102e+00 -4.521430000000000171e-01 1.093366000000000060e+00 -4.920000000000000328e-04 1.230000000000000082e-04 2.020999999999999793e-03 -1.943966000000000083e+00 -4.516939999999999844e-01 1.095434999999999937e+00 1.944024999999999892e+00 4.531430000000000180e-01 -1.096643000000000034e+00 1.943789999999999907e+00 4.544050000000000034e-01 -1.096357999999999944e+00 1.943848999999999938e+00 4.545420000000000016e-01 -1.095752999999999977e+00 1.943955000000000100e+00 4.550469999999999793e-01 -1.096097000000000099e+00