2.564820000000000100e+00 3.006450000000000067e+00 4.995049999999999990e+00 9.886779999999999902e+00 3.705909999999999815e+00 2.371539999999999981e+00 2.008970000000000145e+00 1.053039999999999976e+00 2.371570000000000178e+00 5.657600000000000406e+00 3.006440000000000001e+00 4.995029999999999859e+00 3.701220000000000176e+00 3.705900000000000194e+00 2.371529999999999916e+00 5.101740000000000386e+00 1.053039999999999976e+00 2.371570000000000178e+00 8.750389999999999446e+00 3.006450000000000067e+00 4.995029999999999859e+00 6.793989999999999974e+00 3.705909999999999815e+00 2.371529999999999916e+00 8.194520000000000692e+00 1.053029999999999911e+00 2.371579999999999799e+00 1.164290000000000047e+00 5.659340000000000259e+00 4.995049999999999990e+00 2.856559999999999988e+00 8.312219999999999942e+00 4.995040000000000369e+00 2.300699999999999967e+00 6.358810000000000073e+00 2.371579999999999799e+00 4.257069999999999688e+00 5.659340000000000259e+00 4.995059999999999611e+00 5.949340000000000295e+00 8.312210000000000321e+00 4.995049999999999990e+00 5.393480000000000274e+00 6.358810000000000073e+00 2.371570000000000178e+00 7.349859999999999616e+00 5.659329999999999750e+00 4.995040000000000369e+00 9.042120000000000601e+00 8.312219999999999942e+00 4.995029999999999859e+00 8.486269999999999314e+00 6.358810000000000073e+00 2.371579999999999799e+00 1.117806999999999995e+01 4.230339999999999989e+00 9.767160000000000508e+00 3.300269999999999815e+00 1.577479999999999993e+00 9.767179999999999751e+00 4.992510000000000225e+00 4.230349999999999611e+00 9.767139999999999489e+00 6.393049999999999677e+00 1.577469999999999928e+00 9.767200000000000770e+00 8.085300000000000153e+00 4.230330000000000368e+00 9.767160000000000508e+00 9.485829999999999984e+00 1.577469999999999928e+00 9.767189999999999372e+00 3.592010000000000147e+00 6.883239999999999803e+00 9.767179999999999751e+00 6.684779999999999944e+00 6.883239999999999803e+00 9.767189999999999372e+00 9.777559999999999363e+00 6.883230000000000182e+00 9.767189999999999372e+00 3.856110000000000149e+00 3.530879999999999797e+00 1.239067000000000007e+01 6.948889999999999567e+00 3.530870000000000175e+00 1.239065000000000083e+01 1.004166999999999987e+01 3.530879999999999797e+00 1.239067000000000007e+01 2.455589999999999939e+00 6.183760000000000367e+00 1.239066000000000045e+01 4.147850000000000037e+00 8.836650000000000560e+00 1.239065000000000083e+01 5.548379999999999868e+00 6.183769999999999989e+00 1.239066000000000045e+01 7.240649999999999586e+00 8.836639999999999162e+00 1.239066000000000045e+01 8.641159999999999286e+00 6.183769999999999989e+00 1.239067000000000007e+01 1.033342000000000027e+01 8.836639999999999162e+00 1.239066000000000045e+01 5.147400000000000198e+00 4.055299999999999905e+00 1.978626999999999825e+01 1.246936999999999962e+01 4.754769999999999719e+00 1.716275999999999868e+01 4.591549999999999798e+00 2.101890000000000036e+00 1.716281000000000034e+01 8.240190000000000126e+00 4.055299999999999905e+00 1.978628000000000142e+01 6.283800000000000274e+00 4.754780000000000229e+00 1.716276999999999830e+01 7.684350000000000236e+00 2.101900000000000102e+00 1.716280000000000072e+01 1.133296999999999954e+01 4.055299999999999905e+00 1.978626999999999825e+01 9.376590000000000202e+00 4.754769999999999719e+00 1.716276999999999830e+01 1.077712000000000003e+01 2.101910000000000167e+00 1.716281000000000034e+01 3.746890000000000054e+00 6.708199999999999719e+00 1.978628000000000142e+01 5.439160000000000217e+00 9.361069999999999780e+00 1.978628000000000142e+01 4.883289999999999687e+00 7.407670000000000421e+00 1.716281000000000034e+01 6.839669999999999916e+00 6.708190000000000097e+00 1.978628000000000142e+01 8.531940000000000524e+00 9.361079999999999401e+00 1.978626999999999825e+01 7.976079999999999615e+00 7.407680000000000042e+00 1.716281000000000034e+01 9.932460000000000733e+00 6.708199999999999719e+00 1.978628000000000142e+01 1.162471000000000032e+01 9.361079999999999401e+00 1.978626999999999825e+01 1.106886000000000081e+01 7.407680000000000042e+00 1.716280000000000072e+01 1.747770000000000046e+00 1.627087999999999823e+01 4.995040000000000369e+00 4.840559999999999974e+00 1.627086999999999861e+01 4.995049999999999990e+00 7.933349999999999902e+00 1.627087999999999823e+01 4.995049999999999990e+00 1.017853000000000030e+01 9.011670000000000513e+00 2.371529999999999916e+00 3.992939999999999934e+00 9.011680000000000135e+00 2.371539999999999981e+00 7.085729999999999862e+00 9.011680000000000135e+00 2.371529999999999916e+00 1.456050000000000066e+00 1.096510999999999925e+01 4.995049999999999990e+00 3.148299999999999876e+00 1.361799000000000071e+01 4.995040000000000369e+00 1.047025000000000006e+01 1.431746000000000052e+01 2.371519999999999850e+00 2.592449999999999921e+00 1.166458000000000084e+01 2.371570000000000178e+00 4.548809999999999576e+00 1.096509999999999962e+01 4.995049999999999990e+00 6.241069999999999673e+00 1.361799000000000071e+01 4.995049999999999990e+00 4.284679999999999822e+00 1.431744999999999912e+01 2.371519999999999850e+00 5.685240000000000293e+00 1.166456999999999944e+01 2.371579999999999799e+00 7.641600000000000392e+00 1.096509999999999962e+01 4.995049999999999990e+00 9.333869999999999223e+00 1.361797999999999931e+01 4.995049999999999990e+00 7.377480000000000260e+00 1.431746000000000052e+01 2.371539999999999981e+00 8.778019999999999712e+00 1.166456999999999944e+01 2.371579999999999799e+00 1.146982000000000035e+01 9.536110000000000753e+00 9.767139999999999489e+00 5.284259999999999735e+00 9.536110000000000753e+00 9.767150000000000887e+00 8.377039999999999154e+00 9.536110000000000753e+00 9.767150000000000887e+00 1.176157000000000075e+01 1.484187999999999974e+01 9.767150000000000887e+00 3.883750000000000036e+00 1.218900000000000006e+01 9.767189999999999372e+00 5.575980000000000381e+00 1.484187999999999974e+01 9.767160000000000508e+00 6.976530000000000342e+00 1.218900000000000006e+01 9.767189999999999372e+00 8.668770000000000309e+00 1.484187999999999974e+01 9.767139999999999489e+00 1.006930999999999976e+01 1.218900000000000006e+01 9.767179999999999751e+00 3.039070000000000160e+00 1.679531000000000063e+01 1.239065000000000083e+01 6.131850000000000023e+00 1.679530000000000101e+01 1.239066000000000045e+01 9.224640000000000839e+00 1.679532000000000025e+01 1.239066000000000045e+01 2.747329999999999828e+00 1.148954999999999949e+01 1.239066000000000045e+01 4.439610000000000056e+00 1.414241999999999955e+01 1.239066000000000045e+01 5.840110000000000134e+00 1.148953000000000024e+01 1.239066000000000045e+01 7.532379999999999853e+00 1.414241999999999955e+01 1.239066000000000045e+01 8.932900000000000063e+00 1.148953999999999986e+01 1.239065000000000083e+01 1.062515999999999927e+01 1.414240999999999993e+01 1.239066000000000045e+01 4.330379999999999896e+00 1.731973999999999947e+01 1.978629000000000104e+01 7.423160000000000203e+00 1.731974999999999909e+01 1.978626999999999825e+01 1.051594000000000051e+01 1.731973999999999947e+01 1.978628000000000142e+01 1.276111000000000040e+01 1.006054999999999922e+01 1.716275999999999868e+01 6.575549999999999784e+00 1.006054999999999922e+01 1.716276999999999830e+01 9.668340000000000600e+00 1.006052999999999997e+01 1.716275999999999868e+01 4.038630000000000386e+00 1.201396000000000086e+01 1.978628000000000142e+01 5.730889999999999596e+00 1.466684000000000054e+01 1.978626999999999825e+01 1.305284999999999940e+01 1.536631999999999998e+01 1.716276999999999830e+01 5.175040000000000084e+00 1.271344999999999992e+01 1.716280000000000072e+01 7.131420000000000314e+00 1.201397000000000048e+01 1.978628000000000142e+01 8.823669999999999902e+00 1.466684000000000054e+01 1.978626999999999825e+01 6.867280000000000051e+00 1.536631999999999998e+01 1.716276999999999830e+01 8.267830000000000013e+00 1.271344000000000030e+01 1.716281000000000034e+01 1.022420999999999935e+01 1.201396000000000086e+01 1.978626999999999825e+01 1.191646000000000072e+01 1.466684000000000054e+01 1.978628000000000142e+01 9.960079999999999600e+00 1.536631000000000036e+01 1.716274999999999906e+01 1.136062000000000083e+01 1.271344999999999992e+01 1.716281000000000034e+01 7.404399999999999871e-01 2.029739999999999878e+00 3.683279999999999887e+00 1.053307000000000038e+01 3.967290000000000205e+00 6.072790000000000354e+00 1.918570000000000109e+00 2.745060000000000056e+00 1.293979999999999908e+00 2.263199999999999934e-01 9.214999999999999580e-02 1.293970000000000065e+00 2.432729999999999837e+00 4.682629999999999626e+00 3.683370000000000033e+00 2.655250000000000110e+00 1.314419999999999922e+00 6.072849999999999859e+00 3.833229999999999915e+00 2.029749999999999943e+00 3.683269999999999822e+00 4.347500000000000142e+00 3.967280000000000140e+00 6.072790000000000354e+00 5.011339999999999684e+00 2.745060000000000056e+00 1.293989999999999974e+00 3.319100000000000161e+00 9.214999999999999580e-02 1.293970000000000065e+00 5.525520000000000209e+00 4.682640000000000136e+00 3.683370000000000033e+00 5.748039999999999594e+00 1.314419999999999922e+00 6.072849999999999859e+00 6.926009999999999778e+00 2.029749999999999943e+00 3.683289999999999953e+00 7.440290000000000070e+00 3.967290000000000205e+00 6.072779999999999845e+00 8.104129999999999612e+00 2.745080000000000187e+00 1.293979999999999908e+00 6.411880000000000024e+00 9.214999999999999580e-02 1.293959999999999999e+00 8.618299999999999628e+00 4.682640000000000136e+00 3.683370000000000033e+00 8.840820000000000789e+00 1.314410000000000078e+00 6.072840000000000238e+00 1.032180000000000097e+00 7.335510000000000197e+00 3.683269999999999822e+00 5.180500000000000105e-01 5.397920000000000051e+00 1.293970000000000065e+00 2.947000000000000064e+00 6.620190000000000019e+00 6.072840000000000238e+00 4.124970000000000248e+00 7.335510000000000197e+00 3.683279999999999887e+00 3.610840000000000050e+00 5.397929999999999673e+00 1.293970000000000065e+00 6.039769999999999861e+00 6.620180000000000398e+00 6.072840000000000238e+00 7.217760000000000176e+00 7.335510000000000197e+00 3.683279999999999887e+00 6.703619999999999912e+00 5.397929999999999673e+00 1.293959999999999999e+00 9.132569999999999411e+00 6.620180000000000398e+00 6.072840000000000238e+00 2.031740000000000101e+00 2.554170000000000051e+00 1.107887999999999984e+01 3.209870000000000001e+00 3.269509999999999916e+00 8.689600000000000435e+00 1.517619999999999969e+00 6.165899999999999714e-01 8.689590000000000813e+00 3.724029999999999951e+00 5.207080000000000375e+00 1.107898999999999923e+01 5.124539999999999651e+00 2.554180000000000117e+00 1.107890000000000086e+01 6.302640000000000242e+00 3.269509999999999916e+00 8.689590000000000813e+00 4.610400000000000276e+00 6.165800000000000169e-01 8.689579999999999416e+00 6.816819999999999879e+00 5.207069999999999865e+00 1.107896999999999998e+01 8.217320000000000846e+00 2.554170000000000051e+00 1.107888999999999946e+01 9.395440000000000680e+00 3.269489999999999785e+00 8.689600000000000435e+00 7.703179999999999694e+00 6.165699999999999514e-01 8.689590000000000813e+00 9.909599999999999298e+00 5.207060000000000244e+00 1.107897999999999961e+01 2.323479999999999990e+00 7.859950000000000436e+00 1.107888999999999946e+01 1.809360000000000079e+00 5.922349999999999781e+00 8.689590000000000813e+00 5.416280000000000427e+00 7.859960000000000058e+00 1.107888999999999946e+01 4.902140000000000164e+00 5.922349999999999781e+00 8.689579999999999416e+00 8.509050000000000225e+00 7.859939999999999927e+00 1.107887999999999984e+01 7.994930000000000092e+00 5.922360000000000291e+00 8.689579999999999416e+00 1.182437999999999967e+01 4.491710000000000313e+00 1.346840000000000082e+01 3.946549999999999780e+00 1.838850000000000096e+00 1.346846000000000032e+01 5.638810000000000322e+00 4.491719999999999935e+00 1.346840000000000082e+01 7.039349999999999774e+00 1.838850000000000096e+00 1.346846999999999994e+01 8.731579999999999231e+00 4.491710000000000313e+00 1.346840000000000082e+01 1.013213000000000008e+01 1.838850000000000096e+00 1.346846999999999994e+01 4.238290000000000113e+00 7.144619999999999749e+00 1.346846000000000032e+01 7.331089999999999662e+00 7.144630000000000258e+00 1.346846999999999994e+01 1.042387000000000086e+01 7.144610000000000127e+00 1.346846999999999994e+01 3.323040000000000216e+00 3.078609999999999847e+00 1.847450999999999866e+01 1.311566999999999972e+01 5.016149999999999665e+00 2.086402000000000001e+01 4.501159999999999606e+00 3.793930000000000025e+00 1.608521000000000001e+01 2.808910000000000018e+00 1.141010000000000080e+00 1.608519000000000077e+01 5.015329999999999622e+00 5.731499999999999595e+00 1.847459999999999880e+01 5.237860000000000404e+00 2.363269999999999982e+00 2.086409000000000091e+01 6.415829999999999700e+00 3.078609999999999847e+00 1.847450999999999866e+01 6.930100000000000371e+00 5.016149999999999665e+00 2.086401000000000039e+01 7.593950000000000422e+00 3.793930000000000025e+00 1.608521999999999963e+01 5.901690000000000325e+00 1.141010000000000080e+00 1.608521000000000001e+01 8.108119999999999550e+00 5.731489999999999974e+00 1.847459999999999880e+01 8.330629999999999313e+00 2.363280000000000047e+00 2.086409000000000091e+01 9.508609999999999118e+00 3.078609999999999847e+00 1.847450999999999866e+01 1.002288000000000068e+01 5.016149999999999665e+00 2.086402000000000001e+01 1.068673000000000073e+01 3.793930000000000025e+00 1.608521000000000001e+01 8.994479999999999364e+00 1.141010000000000080e+00 1.608520000000000039e+01 1.120090000000000074e+01 5.731510000000000105e+00 1.847458999999999918e+01 1.142342000000000013e+01 2.363280000000000047e+00 2.086409000000000091e+01 3.614780000000000104e+00 8.384380000000000166e+00 1.847450999999999866e+01 3.100649999999999906e+00 6.446780000000000399e+00 1.608519000000000077e+01 5.529600000000000293e+00 7.669050000000000367e+00 2.086407000000000167e+01 6.707569999999999588e+00 8.384389999999999787e+00 1.847451999999999828e+01 6.193430000000000213e+00 6.446790000000000020e+00 1.608519000000000077e+01 8.622379999999999711e+00 7.669050000000000367e+00 2.086408000000000129e+01 9.800349999999999895e+00 8.384370000000000545e+00 1.847450999999999866e+01 9.286229999999999762e+00 6.446780000000000399e+00 1.608520000000000039e+01 1.171515999999999913e+01 7.669059999999999988e+00 2.086408000000000129e+01 1.082480999999999938e+01 9.273059999999999192e+00 6.072790000000000354e+00 2.210300000000000153e+00 8.050840000000000884e+00 1.293989999999999974e+00 2.724489999999999856e+00 9.988410000000000011e+00 3.683359999999999967e+00 4.639240000000000030e+00 9.273059999999999192e+00 6.072779999999999845e+00 5.303090000000000082e+00 8.050840000000000884e+00 1.293979999999999908e+00 5.817260000000000097e+00 9.988410000000000011e+00 3.683349999999999902e+00 7.732029999999999959e+00 9.273059999999999192e+00 6.072790000000000354e+00 8.395880000000000010e+00 8.050829999999999487e+00 1.293979999999999908e+00 8.910059999999999647e+00 9.988410000000000011e+00 3.683359999999999967e+00 1.323919999999999986e+00 1.264128999999999969e+01 3.683279999999999887e+00 1.111655999999999977e+01 1.457882999999999996e+01 6.072779999999999845e+00 2.502050000000000107e+00 1.335661999999999949e+01 1.293979999999999908e+00 8.097999999999999643e-01 1.070369999999999955e+01 1.293959999999999999e+00 3.016230000000000189e+00 1.529418000000000077e+01 3.683359999999999967e+00 3.238729999999999887e+00 1.192595999999999989e+01 6.072860000000000369e+00 4.416719999999999757e+00 1.264128999999999969e+01 3.683279999999999887e+00 4.930990000000000428e+00 1.457882999999999996e+01 6.072770000000000223e+00 5.594829999999999970e+00 1.335661999999999949e+01 1.293989999999999974e+00 3.902590000000000003e+00 1.070368000000000031e+01 1.293959999999999999e+00 6.109009999999999607e+00 1.529416999999999938e+01 3.683370000000000033e+00 6.331520000000000259e+00 1.192595000000000027e+01 6.072849999999999859e+00 7.509490000000000443e+00 1.264128000000000007e+01 3.683279999999999887e+00 8.023770000000000735e+00 1.457882999999999996e+01 6.072790000000000354e+00 8.687609999999999388e+00 1.335661999999999949e+01 1.293970000000000065e+00 6.995359999999999800e+00 1.070368000000000031e+01 1.293970000000000065e+00 9.201790000000000802e+00 1.529416999999999938e+01 3.683370000000000033e+00 9.424300000000000566e+00 1.192595000000000027e+01 6.072849999999999859e+00 3.501599999999999824e+00 8.575269999999999726e+00 8.689590000000000813e+00 4.015780000000000349e+00 1.051282999999999923e+01 1.107897999999999961e+01 6.594389999999999752e+00 8.575269999999999726e+00 8.689590000000000813e+00 7.108559999999999768e+00 1.051284000000000063e+01 1.107896999999999998e+01 9.687179999999999680e+00 8.575279999999999347e+00 8.689600000000000435e+00 1.020134999999999970e+01 1.051284000000000063e+01 1.107897999999999961e+01 2.615229999999999944e+00 1.316572000000000031e+01 1.107890000000000086e+01 3.793340000000000156e+00 1.388105000000000011e+01 8.689590000000000813e+00 2.101100000000000190e+00 1.122813000000000017e+01 8.689590000000000813e+00 4.307520000000000238e+00 1.581860999999999962e+01 1.107898999999999923e+01 5.708009999999999806e+00 1.316571000000000069e+01 1.107887999999999984e+01 6.886120000000000019e+00 1.388105000000000011e+01 8.689600000000000435e+00 5.193889999999999674e+00 1.122810999999999915e+01 8.689590000000000813e+00 7.400299999999999656e+00 1.581859999999999999e+01 1.107897999999999961e+01 8.800789999999999225e+00 1.316571000000000069e+01 1.107890000000000086e+01 9.978910000000000835e+00 1.388104000000000049e+01 8.689600000000000435e+00 8.286670000000000869e+00 1.122812000000000054e+01 8.689579999999999416e+00 1.049309000000000047e+01 1.581859999999999999e+01 1.107897999999999961e+01 1.211612000000000045e+01 9.797480000000000189e+00 1.346841000000000044e+01 5.930539999999999701e+00 9.797480000000000189e+00 1.346838999999999942e+01 9.023329999999999629e+00 9.797489999999999810e+00 1.346840000000000082e+01 1.240784999999999982e+01 1.510324999999999918e+01 1.346840000000000082e+01 4.530030000000000001e+00 1.245037999999999911e+01 1.346846000000000032e+01 6.222279999999999589e+00 1.510324999999999918e+01 1.346840000000000082e+01 7.622819999999999929e+00 1.245040000000000013e+01 1.346846000000000032e+01 9.315070000000000405e+00 1.510324999999999918e+01 1.346838999999999942e+01 1.071560999999999986e+01 1.245039000000000051e+01 1.346846999999999994e+01 1.340741000000000049e+01 1.032191000000000081e+01 2.086400000000000077e+01 4.792889999999999873e+00 9.099709999999999965e+00 1.608521000000000001e+01 5.307080000000000020e+00 1.103726999999999947e+01 1.847458999999999918e+01 7.221849999999999881e+00 1.032191000000000081e+01 2.086400000000000077e+01 7.885690000000000310e+00 9.099700000000000344e+00 1.608521000000000001e+01 8.399850000000000705e+00 1.103726999999999947e+01 1.847459999999999880e+01 1.031461999999999968e+01 1.032191000000000081e+01 2.086401000000000039e+01 1.097847999999999935e+01 9.099700000000000344e+00 1.608521000000000001e+01 1.149263000000000012e+01 1.103726999999999947e+01 1.847459999999999880e+01 3.906519999999999992e+00 1.369014999999999915e+01 1.847449999999999903e+01 1.369915999999999912e+01 1.562768999999999942e+01 2.086402000000000001e+01 5.084649999999999892e+00 1.440548000000000073e+01 1.608521000000000001e+01 3.392380000000000173e+00 1.175253999999999976e+01 1.608520000000000039e+01 5.598819999999999908e+00 1.634305000000000163e+01 1.847458999999999918e+01 5.821329999999999671e+00 1.297483000000000075e+01 2.086408000000000129e+01 6.999310000000000365e+00 1.369013999999999953e+01 1.847450999999999866e+01 7.513580000000000148e+00 1.562770000000000081e+01 2.086401000000000039e+01 8.177419999999999689e+00 1.440546999999999933e+01 1.608521999999999963e+01 6.485179999999999723e+00 1.175254999999999939e+01 1.608519000000000077e+01 8.691599999999999326e+00 1.634303999999999846e+01 1.847458999999999918e+01 8.914120000000000488e+00 1.297483000000000075e+01 2.086408000000000129e+01 1.009209000000000067e+01 1.369016000000000055e+01 1.847449999999999903e+01 1.060637000000000008e+01 1.562770000000000081e+01 2.086401000000000039e+01 1.127022000000000013e+01 1.440546999999999933e+01 1.608520000000000039e+01 9.577959999999999141e+00 1.175256000000000078e+01 1.608520000000000039e+01 1.178438000000000052e+01 1.634305000000000163e+01 1.847459999999999880e+01 1.200689999999999991e+01 1.297483000000000075e+01 2.086409000000000091e+01