-2.776407467749999796e+03
-2.776434564510000200e+03
-2.776396198110000114e+03
-2.776292881719999968e+03
-2.776125787490000221e+03
-2.775896824330000072e+03
-2.775608416720000150e+03
-2.775263746090000041e+03
-2.774866398690000096e+03
-2.774420475790000182e+03
