2.304460000000000119e-01 1.561700000000000067e-02 -1.955010000000000081e-01 -2.315029999999999866e-01 -1.459700000000000060e-02 1.975659999999999916e-01 -2.304940000000000044e-01 -1.533400000000000041e-02 1.959619999999999973e-01 2.306410000000000127e-01 1.589099999999999888e-02 -1.957760000000000056e-01 -2.320979999999999988e-01 -1.472900000000000077e-02 1.971420000000000117e-01 -2.308189999999999964e-01 -1.582000000000000073e-02 1.962280000000000135e-01 2.295230000000000048e-01 1.575700000000000017e-02 -1.954599999999999949e-01 -2.313880000000000103e-01 -1.378799999999999991e-02 1.971590000000000009e-01 -2.304779999999999884e-01 -1.597600000000000062e-02 1.960419999999999940e-01 2.298389999999999878e-01 1.496399999999999987e-02 -1.944750000000000090e-01 2.299710000000000087e-01 1.527899999999999918e-02 -1.949019999999999919e-01 -2.307549999999999879e-01 -1.557500000000000030e-02 1.968689999999999884e-01 2.307109999999999994e-01 1.538699999999999964e-02 -1.947099999999999942e-01 2.307680000000000009e-01 1.452400000000000045e-02 -1.952699999999999991e-01 -2.303689999999999904e-01 -1.550400000000000042e-02 1.968350000000000100e-01 2.302069999999999950e-01 1.534699999999999953e-02 -1.953620000000000079e-01 2.296690000000000120e-01 1.414499999999999959e-02 -1.950409999999999922e-01 -2.311040000000000039e-01 -1.579200000000000048e-02 1.957560000000000133e-01 -2.312929999999999986e-01 -1.441800000000000026e-02 1.977019999999999889e-01 -2.305159999999999987e-01 -1.550200000000000015e-02 1.966440000000000132e-01 -2.320379999999999943e-01 -1.482900000000000017e-02 1.975850000000000106e-01 -2.307859999999999912e-01 -1.587600000000000122e-02 1.966299999999999992e-01 -2.311709999999999876e-01 -1.356399999999999967e-02 1.972230000000000094e-01 -2.305399999999999949e-01 -1.640700000000000144e-02 1.967399999999999982e-01 -2.310200000000000031e-01 -1.504300000000000082e-02 1.967869999999999897e-01 -2.301890000000000047e-01 -1.523799999999999981e-02 1.965179999999999982e-01 -2.310190000000000021e-01 -1.527300000000000012e-02 1.953539999999999999e-01 2.308219999999999994e-01 1.493899999999999915e-02 -1.956660000000000066e-01 2.309209999999999874e-01 1.494799999999999948e-02 -1.957689999999999986e-01 2.298650000000000138e-01 1.490600000000000085e-02 -1.957000000000000128e-01 2.297869999999999913e-01 1.504600000000000035e-02 -1.950949999999999906e-01 2.300580000000000125e-01 1.564199999999999965e-02 -1.957389999999999963e-01 2.304579999999999962e-01 1.548000000000000070e-02 -1.951479999999999881e-01 2.307710000000000039e-01 1.503099999999999922e-02 -1.960179999999999978e-01 2.304180000000000117e-01 1.489200000000000072e-02 -1.961100000000000065e-01 2.296700000000000130e-01 1.494499999999999995e-02 -1.960349999999999870e-01 2.305270000000000097e-01 1.530899999999999969e-02 -1.949029999999999929e-01 -2.313010000000000066e-01 -1.487199999999999980e-02 1.982730000000000048e-01 -2.301920000000000077e-01 -1.574499999999999858e-02 1.961320000000000008e-01 2.308810000000000029e-01 1.521499999999999936e-02 -1.953709999999999891e-01 -2.316580000000000028e-01 -1.550400000000000042e-02 1.975870000000000126e-01 -2.309219999999999884e-01 -1.631799999999999917e-02 1.966299999999999992e-01 2.296100000000000085e-01 1.549599999999999936e-02 -1.949239999999999862e-01 -2.310869999999999869e-01 -1.452600000000000072e-02 1.979219999999999868e-01 -2.302889999999999937e-01 -1.690399999999999889e-02 1.963350000000000095e-01 2.297740000000000060e-01 1.451900000000000066e-02 -1.940959999999999908e-01 2.298530000000000018e-01 1.531399999999999949e-02 -1.953050000000000064e-01 -2.307800000000000129e-01 -1.521600000000000036e-02 1.974249999999999894e-01 2.306040000000000034e-01 1.526199999999999952e-02 -1.944240000000000135e-01 2.308070000000000122e-01 1.427900000000000003e-02 -1.954549999999999899e-01 -2.302780000000000105e-01 -1.553399999999999920e-02 1.973709999999999909e-01 2.301759999999999917e-01 1.477299999999999967e-02 -1.949929999999999997e-01 2.296439999999999870e-01 1.423699999999999966e-02 -1.955149999999999944e-01 -2.310069999999999901e-01 -1.564199999999999965e-02 1.964110000000000023e-01 2.304579999999999962e-01 1.490499999999999985e-02 -1.956769999999999898e-01 2.291100000000000081e-01 1.513399999999999988e-02 -1.958989999999999898e-01 2.297069999999999945e-01 1.555699999999999965e-02 -1.956140000000000101e-01 -2.315339999999999898e-01 -1.581000000000000114e-02 1.972990000000000022e-01 -2.309009999999999951e-01 -1.665200000000000014e-02 1.972970000000000002e-01 -2.309879999999999989e-01 -1.565400000000000125e-02 1.970889999999999864e-01 2.302690000000000015e-01 1.526500000000000079e-02 -1.951930000000000054e-01 2.305250000000000077e-01 1.469200000000000020e-02 -1.955929999999999891e-01 -2.309360000000000024e-01 -1.495600000000000054e-02 1.977659999999999973e-01 -2.306140000000000134e-01 -1.434299999999999985e-02 1.967359999999999942e-01 2.293429999999999913e-01 1.543500000000000080e-02 -1.949440000000000062e-01 2.306789999999999952e-01 1.413700000000000026e-02 -1.948020000000000029e-01 -2.317819999999999880e-01 -1.484500000000000056e-02 1.967760000000000065e-01 -2.308979999999999921e-01 -1.487699999999999960e-02 1.972319999999999907e-01 2.301469999999999905e-01 1.534100000000000047e-02 -1.948660000000000114e-01 2.307190000000000074e-01 1.517100000000000046e-02 -1.947160000000000002e-01 -2.312680000000000013e-01 -1.481700000000000031e-02 1.977549999999999863e-01 -2.314090000000000036e-01 -1.515700000000000033e-02 1.965810000000000057e-01 -2.315250000000000086e-01 -1.582300000000000026e-02 1.970040000000000124e-01 -2.311640000000000084e-01 -1.609800000000000120e-02 1.968280000000000030e-01 -2.310619999999999896e-01 -1.526699999999999932e-02 1.966549999999999965e-01 -2.310919999999999919e-01 -1.515999999999999986e-02 1.980870000000000131e-01 -2.306699999999999862e-01 -1.454000000000000084e-02 1.967899999999999927e-01 -2.314700000000000091e-01 -1.537099999999999925e-02 1.969269999999999909e-01 -2.308179999999999954e-01 -1.511299999999999970e-02 1.971660000000000079e-01 -2.312869999999999926e-01 -1.540000000000000049e-02 1.983820000000000028e-01 -2.315170000000000006e-01 -1.554099999999999926e-02 1.969640000000000002e-01 2.304070000000000007e-01 1.447200000000000049e-02 -1.950089999999999879e-01 2.293219999999999981e-01 1.446099999999999990e-02 -1.951009999999999966e-01 2.297520000000000118e-01 1.507299999999999959e-02 -1.949140000000000039e-01 2.305520000000000069e-01 1.559800000000000075e-02 -1.953600000000000059e-01 2.306120000000000114e-01 1.448200000000000008e-02 -1.951479999999999881e-01 2.292420000000000013e-01 1.614000000000000157e-02 -1.951459999999999861e-01 2.303379999999999872e-01 1.452099999999999919e-02 -1.944539999999999880e-01 2.302059999999999940e-01 1.575999999999999970e-02 -1.950850000000000084e-01 2.310699999999999976e-01 1.493200000000000083e-02 -1.946269999999999945e-01 2.304019999999999957e-01 1.501100000000000004e-02 -1.954619999999999969e-01 2.291700000000000126e-01 1.475199999999999949e-02 -1.954589999999999939e-01 2.295540000000000080e-01 1.604600000000000123e-02 -1.953940000000000121e-01 -2.313620000000000121e-01 -1.536099999999999965e-02 1.973330000000000084e-01 -2.310439999999999994e-01 -1.581000000000000114e-02 1.972069999999999934e-01 -2.311549999999999994e-01 -1.468799999999999967e-02 1.971549999999999969e-01 2.303649999999999864e-01 1.577699999999999936e-02 -1.958439999999999903e-01 2.306719999999999882e-01 1.511000000000000017e-02 -1.959740000000000093e-01 -2.306080000000000074e-01 -1.515900000000000060e-02 1.974319999999999964e-01 -2.305270000000000097e-01 -1.417599999999999937e-02 1.963139999999999885e-01 2.290099999999999913e-01 1.592100000000000112e-02 -1.954410000000000036e-01 2.301709999999999867e-01 1.510200000000000084e-02 -1.950659999999999894e-01 -2.315129999999999966e-01 -1.541700000000000015e-02 1.962990000000000013e-01 -2.309799999999999909e-01 -1.464900000000000056e-02 1.968940000000000135e-01 2.299779999999999880e-01 1.586100000000000010e-02 -1.952039999999999886e-01 2.312130000000000019e-01 1.537600000000000078e-02 -1.952710000000000001e-01 -2.315159999999999996e-01 -1.487800000000000060e-02 1.977190000000000059e-01 -2.312349999999999961e-01 -1.515500000000000007e-02 1.963779999999999970e-01 9.500000000000000523e-05 0.000000000000000000e+00 1.041000000000000042e-03 -1.819329999999999892e+00 -4.324069999999999858e-01 8.595829999999999860e-01 1.819509999999999961e+00 4.335689999999999822e-01 -8.614129999999999843e-01 1.819051999999999891e+00 4.348480000000000123e-01 -8.614640000000000075e-01 8.639999999999999677e-04 1.379999999999999933e-04 -6.319999999999999663e-04 -1.817854999999999999e+00 -4.329419999999999935e-01 8.585169999999999746e-01 4.500000000000000283e-05 -5.199999999999999680e-05 1.314999999999999980e-03 -1.818705999999999934e+00 -4.318199999999999816e-01 8.597259999999999902e-01 1.819930000000000048e+00 4.336090000000000222e-01 -8.619099999999999540e-01 1.819202999999999903e+00 4.345539999999999958e-01 -8.611839999999999495e-01 7.950000000000000252e-04 -3.899999999999999929e-05 -6.369999999999999794e-04 -1.818829000000000029e+00 -4.323750000000000093e-01 8.590419999999999723e-01 -2.359999999999999902e-04 -3.499999999999999964e-04 4.659999999999999971e-04 -1.818572999999999995e+00 -4.320749999999999869e-01 8.602239999999999887e-01 1.819684999999999997e+00 4.333520000000000150e-01 -8.612440000000000095e-01 1.819072000000000022e+00 4.347260000000000013e-01 -8.610499999999999821e-01 5.850000000000000165e-04 3.999999999999999819e-06 -2.509999999999999753e-04 -1.818812000000000095e+00 -4.326450000000000018e-01 8.587650000000000006e-01 2.290000000000000098e-04 -1.358999999999999965e-03 2.314999999999999784e-03 1.818910000000000027e+00 4.337420000000000164e-01 -8.600410000000000554e-01 -1.818386000000000058e+00 -4.324230000000000018e-01 8.593110000000000470e-01 -1.310000000000000129e-04 -1.038000000000000077e-03 1.642000000000000013e-03 1.819172000000000011e+00 4.331619999999999915e-01 -8.602199999999999847e-01 -1.819066999999999990e+00 -4.327199999999999935e-01 8.593110000000000470e-01 -7.799999999999999859e-05 -8.779999999999999827e-04 1.968999999999999830e-03 1.819120000000000070e+00 4.332340000000000080e-01 -8.599339999999999762e-01 -1.818767000000000023e+00 -4.323649999999999993e-01 8.593009999999999815e-01 3.899999999999999929e-05 -6.899999999999999667e-04 9.779999999999999197e-04 1.819657999999999998e+00 4.337210000000000232e-01 -8.620130000000000292e-01 1.818848000000000020e+00 4.339210000000000012e-01 -8.611060000000000381e-01 1.085000000000000027e-03 -2.259999999999999910e-04 -1.781999999999999947e-03 -1.099999999999999971e-05 -3.480000000000000020e-04 6.849999999999999535e-04 1.819979999999999931e+00 4.335840000000000249e-01 -8.625589999999999646e-01 1.819252000000000091e+00 4.338600000000000234e-01 -8.613669999999999938e-01 7.100000000000000191e-04 -4.699999999999999724e-05 -1.399000000000000070e-03 -5.299999999999999807e-04 -1.034999999999999896e-03 6.719999999999999628e-04 1.819695999999999980e+00 4.338850000000000207e-01 -8.620999999999999774e-01 1.819074000000000080e+00 4.344689999999999941e-01 -8.610430000000000028e-01 4.699999999999999859e-04 6.000000000000000152e-05 -1.087000000000000076e-03 5.119999999999999768e-04 -8.419999999999999750e-04 1.479999999999999925e-04 1.818969000000000058e+00 4.347239999999999993e-01 -8.617820000000000480e-01 -1.489999999999999897e-04 -7.240000000000000342e-04 -2.699999999999999899e-05 1.819560000000000066e+00 4.341590000000000171e-01 -8.620409999999999462e-01 3.800000000000000209e-05 -2.200000000000000078e-04 2.970000000000000092e-04 1.819215999999999944e+00 4.342280000000000029e-01 -8.618919999999999915e-01 -1.819472999999999896e+00 -4.335769999999999902e-01 8.592640000000000278e-01 -1.818079999999999918e+00 -4.341849999999999876e-01 8.587040000000000228e-01 -1.818915000000000060e+00 -4.332940000000000125e-01 8.593549999999999800e-01 -1.818886999999999921e+00 -4.333859999999999935e-01 8.586380000000000123e-01 -1.818826999999999972e+00 -4.330280000000000240e-01 8.596510000000000540e-01 -1.819177000000000044e+00 -4.338830000000000187e-01 8.586540000000000283e-01 -1.818095999999999934e+00 -4.326670000000000238e-01 8.580090000000000217e-01 -1.819128999999999996e+00 -4.330030000000000268e-01 8.580719999999999459e-01 -1.818732999999999933e+00 -4.324919999999999876e-01 8.580600000000000449e-01 -1.029999999999999964e-04 -9.200000000000000278e-04 1.126000000000000048e-03 -1.819507999999999903e+00 -4.330390000000000073e-01 8.605289999999999884e-01 1.819905000000000106e+00 4.322179999999999911e-01 -8.618440000000000545e-01 1.819012999999999991e+00 4.334379999999999900e-01 -8.613610000000000433e-01 7.129999999999999836e-04 -4.159999999999999744e-04 9.699999999999999963e-05 -1.818157000000000023e+00 -4.327019999999999755e-01 8.593349999999999600e-01 9.999999999999999547e-07 -6.740000000000000114e-04 9.370000000000000074e-04 -1.818807999999999980e+00 -4.326389999999999958e-01 8.610999999999999766e-01 1.819666999999999923e+00 4.324660000000000171e-01 -8.621360000000000134e-01 1.819514000000000076e+00 4.334569999999999812e-01 -8.615770000000000373e-01 5.330000000000000536e-04 -2.269999999999999882e-04 2.599999999999999840e-05 -1.818924999999999903e+00 -4.320749999999999869e-01 8.592959999999999487e-01 -5.479999999999999845e-04 -1.113999999999999973e-03 8.790000000000000070e-04 -1.818634000000000084e+00 -4.326909999999999923e-01 8.608980000000000521e-01 1.819520000000000026e+00 4.323250000000000148e-01 -8.617040000000000255e-01 1.819118000000000013e+00 4.336780000000000079e-01 -8.614720000000000155e-01 3.390000000000000001e-04 -5.360000000000000181e-04 6.470000000000000057e-04 -1.819191000000000003e+00 -4.325240000000000196e-01 8.595059999999999922e-01 3.099999999999999999e-04 -1.167000000000000069e-03 1.975999999999999892e-03 1.819096000000000046e+00 4.342079999999999829e-01 -8.609240000000000226e-01 -1.818356000000000083e+00 -4.335069999999999757e-01 8.596679999999999877e-01 -7.299999999999999903e-05 -1.057999999999999913e-03 1.569999999999999998e-03 1.819566999999999934e+00 4.334470000000000267e-01 -8.609120000000000106e-01 -1.819009000000000098e+00 -4.336909999999999932e-01 8.595850000000000435e-01 -1.430000000000000064e-04 -6.549999999999999833e-04 1.995999999999999944e-03 1.819180000000000019e+00 4.338529999999999887e-01 -8.609890000000000043e-01 -1.818834000000000062e+00 -4.334970000000000212e-01 8.598440000000000527e-01 -1.819177999999999962e+00 -4.333380000000000010e-01 8.605840000000000156e-01 1.819846999999999992e+00 4.326470000000000038e-01 -8.608130000000000503e-01 -1.200000000000000030e-05 -1.069999999999999988e-03 5.300000000000000078e-05 -1.819358000000000031e+00 -4.335890000000000022e-01 8.605249999999999844e-01 1.819498999999999977e+00 4.324879999999999836e-01 -8.603490000000000304e-01 3.660000000000000059e-04 -8.270000000000000441e-04 5.079999999999999880e-04 -1.818462000000000023e+00 -4.339049999999999851e-01 8.605260000000000131e-01 1.819824000000000108e+00 4.325510000000000188e-01 -8.606390000000000429e-01 3.930000000000000117e-04 -5.029999999999999749e-04 2.280000000000000126e-04 2.889999999999999774e-04 -7.690000000000000438e-04 1.778000000000000067e-03 -1.819314000000000098e+00 -4.332329999999999792e-01 8.598710000000000520e-01 1.819890999999999925e+00 4.335140000000000104e-01 -8.616099999999999870e-01 1.819228999999999985e+00 4.336820000000000119e-01 -8.607329999999999703e-01 4.650000000000000270e-04 1.720000000000000066e-04 2.779999999999999811e-04 -1.818267000000000078e+00 -4.334270000000000067e-01 8.592170000000000085e-01 -2.489999999999999809e-04 -7.249999999999999500e-04 2.416999999999999878e-03 -1.819120999999999988e+00 -4.330439999999999845e-01 8.605859999999999621e-01 1.819692000000000087e+00 4.337170000000000192e-01 -8.617089999999999472e-01 1.819005999999999901e+00 4.338409999999999767e-01 -8.601990000000000469e-01 8.319999999999999488e-04 -3.899999999999999929e-05 3.999999999999999819e-06 -1.819091000000000014e+00 -4.335570000000000257e-01 8.586139999999999883e-01 1.179999999999999951e-04 -5.379999999999999583e-04 1.917000000000000084e-03 -1.818359999999999976e+00 -4.331900000000000195e-01 8.597660000000000302e-01 1.820046999999999970e+00 4.332199999999999940e-01 -8.614800000000000235e-01 1.819484000000000101e+00 4.337599999999999789e-01 -8.603239999999999776e-01 3.530000000000000152e-04 9.699999999999999963e-05 -1.489999999999999897e-04 -1.818675999999999959e+00 -4.332369999999999832e-01 8.590870000000000450e-01 1.819903000000000048e+00 4.333250000000000157e-01 -8.625380000000000269e-01 8.000000000000000654e-05 -2.220000000000000022e-04 -1.969999999999999963e-03 1.819622999999999990e+00 4.332960000000000145e-01 -8.626570000000000071e-01 7.230000000000000098e-04 -1.200000000000000030e-04 -1.588999999999999918e-03 1.819890000000000008e+00 4.330350000000000033e-01 -8.628029999999999866e-01 5.330000000000000536e-04 3.460000000000000076e-04 -1.861000000000000024e-03 5.099999999999999960e-05 -4.899999999999999842e-04 9.300000000000000541e-04 1.819970000000000088e+00 4.325039999999999996e-01 -8.617179999999999840e-01 1.819293000000000049e+00 4.336940000000000239e-01 -8.616420000000000190e-01 4.369999999999999970e-04 -7.700000000000000139e-05 -2.739999999999999923e-04 -2.590000000000000071e-04 -4.440000000000000045e-04 1.557999999999999923e-03 1.819593999999999934e+00 4.328839999999999910e-01 -8.614119999999999555e-01 1.819283999999999901e+00 4.336590000000000167e-01 -8.613009999999999833e-01 8.989999999999999511e-04 -5.730000000000000501e-04 -9.500000000000000523e-05 4.099999999999999912e-04 -4.049999999999999781e-04 5.519999999999999733e-04 1.819885999999999893e+00 4.325450000000000128e-01 -8.613830000000000098e-01 1.819250999999999951e+00 4.336220000000000074e-01 -8.610750000000000348e-01 2.900000000000000017e-04 -3.020000000000000223e-04 -4.360000000000000269e-04 -1.819261999999999935e+00 -4.316599999999999882e-01 8.594070000000000320e-01 -1.819376000000000104e+00 -4.322469999999999923e-01 8.597780000000000422e-01 -1.818399000000000099e+00 -4.323139999999999761e-01 8.593969999999999665e-01 -1.819379000000000079e+00 -4.328750000000000098e-01 8.601640000000000397e-01 -1.818387999999999893e+00 -4.320350000000000024e-01 8.585880000000000178e-01 -1.818996999999999975e+00 -4.326329999999999898e-01 8.603290000000000104e-01 -1.819166000000000061e+00 -4.326820000000000110e-01 8.582699999999999774e-01 -1.818737999999999966e+00 -4.324109999999999898e-01 8.601259999999999462e-01 -1.818653999999999993e+00 -4.320039999999999991e-01 8.583490000000000286e-01 -1.819388999999999923e+00 -4.331249999999999822e-01 8.604180000000000161e-01 1.819854000000000083e+00 4.340899999999999759e-01 -8.624450000000000172e-01 -1.800000000000000046e-05 -2.099999999999999884e-05 -1.394000000000000057e-03 -1.819579000000000057e+00 -4.335649999999999782e-01 8.604770000000000474e-01 1.819612000000000007e+00 4.338449999999999807e-01 -8.622429999999999817e-01 7.169999999999999724e-04 7.899999999999999579e-05 -1.351999999999999903e-03 -1.818532000000000037e+00 -4.338310000000000222e-01 8.603499999999999481e-01 1.819930000000000048e+00 4.338629999999999987e-01 -8.625070000000000237e-01 7.100000000000000191e-04 3.229999999999999907e-04 -1.319999999999999993e-03 1.459999999999999981e-04 -1.849999999999999973e-04 2.959999999999999849e-04 -1.819536999999999960e+00 -4.324219999999999731e-01 8.601509999999999989e-01 1.819928999999999908e+00 4.334100000000000175e-01 -8.623600000000000154e-01 1.819361999999999924e+00 4.351079999999999948e-01 -8.621220000000000550e-01 4.539999999999999765e-04 -2.079999999999999872e-04 -9.959999999999999236e-04 -1.818292000000000019e+00 -4.327989999999999893e-01 8.586709999999999621e-01 -2.229999999999999994e-04 1.440000000000000036e-04 4.510000000000000120e-04 -1.819061000000000039e+00 -4.321980000000000266e-01 8.603030000000000399e-01 1.819584000000000090e+00 4.338929999999999731e-01 -8.623530000000000362e-01 1.818961000000000050e+00 4.349830000000000085e-01 -8.616810000000000302e-01 8.989999999999999511e-04 -5.869999999999999567e-04 -1.039999999999999909e-03 -1.819096000000000046e+00 -4.333489999999999842e-01 8.586479999999999668e-01 2.530000000000000239e-04 -2.069999999999999900e-04 6.899999999999999667e-05 -1.818974000000000091e+00 -4.323230000000000128e-01 8.606530000000000014e-01 1.820087999999999928e+00 4.332019999999999760e-01 -8.626369999999999871e-01 1.819245000000000001e+00 4.347610000000000086e-01 -8.619470000000000187e-01 6.030000000000000204e-04 -3.550000000000000096e-04 -1.461999999999999975e-03 -1.818445000000000089e+00 -4.326789999999999803e-01 8.585570000000000146e-01