1.588300097310028913e-02 -1.052599876673160351e-02 3.206899992284231032e-02 -1.568300089980814022e-02 1.286399882711876039e-02 1.324300007371834523e-02 -9.140000413049929450e-04 5.929999315152217074e-04 6.420000044528141950e-04 7.130000007457551123e-04 -6.999994689870064879e-05 -8.240000038657356108e-04 -2.241600089840722898e-02 1.307099832098676181e-02 1.633300011067676666e-02 2.033899588045778514e-02 5.361200152650785061e-02 -1.174900016582010667e-02 2.208999914450390963e-03 1.087000166462915576e-03 -6.050000132791394673e-04 -8.599999539726420827e-05 -3.400000613661535839e-05 3.680000005086693873e-04 4.340000098958636749e-04 -5.099996608369671458e-05 1.093999997655325336e-03 -4.820002062464299347e-04 2.587999961643347533e-03 -1.904999999924521974e-03 3.129998059868855254e-04 2.562000023627314122e-03 -4.500000428683630354e-05 -2.579999829543561693e-04 -2.410000197263654283e-04 -2.139999983351480661e-04 2.439996372419400760e-04 5.066000022142620393e-03 3.692999993592847082e-03 -1.765000033685942566e-03 5.269998676293381670e-04 1.118000009216137038e-03 4.739999747000296854e-04 3.670000362932412832e-04 4.449999970170008187e-04 1.049999944019436001e-03 8.520000809420474452e-04 1.531999993353109005e-03 -7.266000627223372955e-03 2.029993397460425910e-04 -1.108489999600955067e-01 1.001200002736164774e-02 5.660007699078609773e-04 1.271199994416984287e-02 -2.129998979948015772e-04 7.600000338983075156e-05 1.952100000109981484e-02 -2.647999966397007396e-03 1.033999819963326260e-03 2.025500001358373700e-02 -8.080000136070179806e-04 1.610999958476725400e-03 1.960800000285085193e-02 1.787000187313898727e-03 -8.489998425717746331e-04 2.230199999098406161e-02 -9.859998397335493960e-04 -6.950000550813460395e-04 1.951200000613679750e-02 9.000133668077002253e-06 -3.119999794007226107e-04 1.994100000026197139e-02 1.249000165623999001e-03 -7.599998859678098843e-04 1.959199999386484342e-02 -1.977999958903352805e-03 9.119998703219519111e-04 1.994100001000729747e-02 1.482999983644499222e-03 1.628000131480943210e-03 1.934299999018788269e-02 -7.579998109817766110e-04 -1.024000037137433707e-03 2.021300000520689921e-02 1.101999459878108241e-03 9.669000117934624383e-03 3.462899998425898046e-02 1.673000065039545155e-03 5.120001453063073278e-04 1.879799999025385734e-02 3.850002527178456534e-04 -1.887999950989711906e-03 1.991499999976073174e-02 -3.145999715557145672e-03 -2.379000219019049896e-03 1.893500001974179198e-02 1.294300891240282234e-02 -1.174039990151259649e-01 5.998000045828603792e-03 -2.335000193683644913e-03 1.096999803367872421e-03 -2.005799998820690516e-02 -4.160000824541982829e-04 -4.380000523776692261e-04 -2.093899999726623121e-02 -1.003999948240205838e-02 -6.495000754554135225e-03 4.779000061907051795e-03 -5.031001442274188849e-03 1.956599962629148801e-02 6.795000008226376002e-03 3.029999622733692537e-03 3.641000210720402638e-03 -1.846000002036207038e-02 1.246999945682888923e-03 -7.279999254818122871e-04 -1.981500000615607840e-02 6.720000224647384741e-04 -1.812999969924133665e-03 -2.077100000189838203e-02 -5.350001038989186507e-04 -9.300006053661650195e-05 -2.009699999695398198e-02 3.869997513087629370e-04 1.769000008476283000e-03 -2.081600000390319838e-02 1.189999185298173956e-04 -3.500000105330360284e-04 -1.955500000030725716e-02 2.199977459291469902e-05 1.531999981841149217e-03 -1.984500000165171849e-02 6.719995618717734473e-04 4.110000027789420009e-03 -2.306000000781472520e-02 -1.293000060675400563e-03 -6.640001178573579728e-04 -2.008999999219957325e-02 1.252999974139391414e-03 -1.128999925366648864e-03 -2.015400000578864564e-02 -6.560006429993038742e-04 6.788999926943889256e-03 -2.346900000316034726e-02
1.586900097183336147e-02 -1.051099876781440116e-02 3.204499992290460453e-02 -1.566900089918818809e-02 1.285499882816659549e-02 1.323200007365005898e-02 -9.120000412293627476e-04 5.919999316664821976e-04 6.420000044427732902e-04 7.120000007788742117e-04 -6.999994696833763974e-05 -8.180000038602157917e-04 -2.239200089733901430e-02 1.305599832278990166e-02 1.632100011055927224e-02 2.032199588365081466e-02 5.357000152522513325e-02 -1.174600016568431472e-02 2.205999914601651513e-03 1.085000166236024756e-03 -6.050000132605821545e-04 -8.799999532163393185e-05 -3.500000628787587012e-05 3.680000005207079345e-04 4.320000097225237140e-04 -4.899996623895274333e-05 1.089999997664367485e-03 -4.800002058572389279e-04 2.582999961796605785e-03 -1.902999999930567220e-03 3.129998062783668285e-04 2.558000023625316057e-03 -4.700000428284078932e-05 -2.589999828787259363e-04 -2.420000198019956828e-04 -2.139999983286293276e-04 2.449996377327128601e-04 5.059000022211259003e-03 3.685999993594319367e-03 -1.762000033621351908e-03 5.259998678542311635e-04 1.116000009200576303e-03 4.739999747866996687e-04 3.660000362952390640e-04 4.469999970179997428e-04 1.045999944159656855e-03 8.500000806375286166e-04 1.529999993377186051e-03 -7.257000627117425259e-03 2.069993405006317606e-04 -1.107749999601491814e-01 1.000500002738207925e-02 5.650007693684603975e-04 1.270199994420947998e-02 -2.199998980185287258e-04 7.500000284243915454e-05 1.950300000113945262e-02 -2.644999966398654985e-03 1.032999820176232859e-03 2.024100001356817641e-02 -8.060000137709659972e-04 1.611999958612003606e-03 1.959200000283881429e-02 1.783000186668570004e-03 -8.419998428952720935e-04 2.228099999099915005e-02 -9.859998397517566199e-04 -6.960000550983269467e-04 1.949500000613779357e-02 9.000133352868544502e-06 -3.089999794167045994e-04 1.992500000025897167e-02 1.247000165395460627e-03 -7.579998861330546067e-04 1.957799999387389162e-02 -1.979999958997190335e-03 9.119998701537105137e-04 1.992400001001833759e-02 1.482999983679842695e-03 1.626000131459966885e-03 1.932199999018988090e-02 -7.529998112544739356e-04 -1.022000036781257632e-03 2.019100000517730364e-02 1.105999460059192653e-03 9.665000118215170272e-03 3.460699998424089652e-02 1.667000064746416207e-03 5.150001448405393516e-04 1.878599999028398096e-02 3.830002524451483754e-04 -1.885999951162947849e-03 1.989299999976977887e-02 -3.135999716034654303e-03 -2.374000218280726635e-03 1.891700001968159989e-02 1.293500890701099540e-02 -1.173329990157350178e-01 5.994000045801843417e-03 -2.332000193384996256e-03 1.093999803607748501e-03 -2.004499998822046811e-02 -4.150000822736907942e-04 -4.390000522830602510e-04 -2.091999999727075371e-02 -1.002899948311584792e-02 -6.486000753728195754e-03 4.773000061837343738e-03 -5.031001441491934380e-03 1.955499962628249808e-02 6.786000008237363414e-03 3.030999622962230779e-03 3.639000210810017320e-03 -1.844600002036559522e-02 1.249999945905907539e-03 -7.299999252419360745e-04 -1.980200000617064054e-02 6.670000223592845124e-04 -1.809999970280309727e-03 -2.074900000187377899e-02 -5.340001038807112941e-04 -9.200006044400533753e-05 -2.007999999696050142e-02 3.839997513159306331e-04 1.770000008264375601e-03 -2.080100000388763679e-02 1.199999184558348382e-04 -3.480000104434214660e-04 -1.954100000031477186e-02 2.799977472926334774e-05 1.530999982305918583e-03 -1.983400000168383803e-02 6.739995619380117434e-04 4.110000027952667029e-03 -2.304800000782576339e-02 -1.290000060802933566e-03 -6.610001176124874782e-04 -2.007199999221912987e-02 1.247999973801526682e-03 -1.122999925723823945e-03 -2.013300000576704121e-02 -6.560006424406450692e-04 6.782999926962868069e-03 -2.345000000315435387e-02
1.585700097116208088e-02 -1.050299876873395100e-02 3.203299992296285148e-02 -1.565600089831374608e-02 1.284299882914379486e-02 1.322600007359028655e-02 -9.150000410560228540e-04 5.899999314435870959e-04 6.460000044613305918e-04 7.130000008009535796e-04 -6.999994688871188063e-05 -8.140000038657356930e-04 -2.237500089659927305e-02 1.304599832407262079e-02 1.631800011047542312e-02 2.030199588754659848e-02 5.351900152371951574e-02 -1.173900016552297497e-02 2.204999914677281420e-03 1.084000166160394366e-03 -6.050000132540633889e-04 -8.699999554300485701e-05 -3.200000621124674579e-05 3.690000005121914966e-04 4.320000095878227613e-04 -4.699996623595611577e-05 1.092999997662369698e-03 -4.820002060029796010e-04 2.584999961646344303e-03 -1.901999999921525492e-03 3.129998064296273430e-04 2.556000023625316225e-03 -4.700000428084303840e-05 -2.569999829598760351e-04 -2.410000196517340465e-04 -2.149999983406678992e-04 2.459996379430440944e-04 5.056000022283892344e-03 3.682999993591796247e-03 -1.762000033464571503e-03 5.239998678552300988e-04 1.117000009202573970e-03 4.719999745653287383e-04 3.690000361449774437e-04 4.479999970260428125e-04 1.046999944257366588e-03 8.490000807171544598e-04 1.533999993372665242e-03 -7.250000627211840125e-03 2.099993410540166184e-04 -1.107509999601908185e-01 9.998000026987367145e-03 5.700007688360518750e-04 1.269899994424312541e-02 -2.199998980996788461e-04 7.600000284144028983e-05 1.950200000113845242e-02 -2.643999966507404667e-03 1.033999820245869779e-03 2.023500001356165826e-02 -8.070000138631558406e-04 1.612999958533376963e-03 1.958900000284333545e-02 1.783000185375687970e-03 -8.259998429102553786e-04 2.226599999098317212e-02 -9.839998399416563166e-04 -6.940000549540586202e-04 1.948800000612475533e-02 8.000133260678719683e-06 -3.079999794953316213e-04 1.992200000026349282e-02 1.246000165222120636e-03 -7.559998862126805341e-04 1.957399999387741257e-02 -1.980999959165010652e-03 9.139998700750835703e-04 1.992100001002186302e-02 1.481999983668803216e-03 1.626000131382338877e-03 1.931999999019540226e-02 -7.489998113356240942e-04 -1.021000036479735671e-03 2.019000000515422388e-02 1.105999460155254483e-03 9.663000118205181468e-03 3.459699998424289880e-02 1.660000064525045263e-03 5.180001443121263907e-04 1.878699999031962359e-02 3.820002524617079672e-04 -1.885999951235581588e-03 1.989599999977529829e-02 -3.123999716488435989e-03 -2.368000217373163619e-03 1.891700001960936947e-02 1.293500890489886895e-02 -1.173049990157340183e-01 5.995000045773874603e-03 -2.330000193335317847e-03 1.093999803767999003e-03 -2.003599998823150929e-02 -4.140000820948309674e-04 -4.410000522024356108e-04 -2.091499999727427367e-02 -1.002999948332618241e-02 -6.483000753800829095e-03 4.776000061839866424e-03 -5.032001441416304038e-03 1.955399962620686660e-02 6.786000008243882504e-03 3.037999622569167654e-03 3.645000211350416137e-03 -1.843500002041022559e-02 1.248999945939026530e-03 -7.299999253115730790e-04 -1.979600000616512159e-02 6.620000221174819361e-04 -1.805999970647473394e-03 -2.073800000185017228e-02 -5.340001039011430840e-04 -9.100006043401657216e-05 -2.006999999696150103e-02 3.829997513175783250e-04 1.771000008202729516e-03 -2.078700000388311597e-02 1.209999184133237019e-04 -3.470000103617979317e-04 -1.953500000032129189e-02 2.799977486009216042e-05 1.529999982315907205e-03 -1.982400000168283924e-02 6.749995618253902671e-04 4.112000028035289571e-03 -2.304100000783328162e-02 -1.290000060769814442e-03 -6.610001176064942254e-04 -2.006599999221913080e-02 1.246999973618794898e-03 -1.119999925791462800e-03 -2.012500000576451786e-02 -6.540006420498062920e-04 6.778999927130111361e-03 -2.343400000316139820e-02
1.582700096908916734e-02 -1.047799877103582251e-02 3.199999992310347680e-02 -1.563000089709427193e-02 1.282599883109819539e-02 1.321400007346375076e-02 -9.110000410781022087e-04 5.899999317421125147e-04 6.420000044392512595e-04 7.120000008600242507e-04 -7.099994696733877503e-05 -8.170000038592168919e-04 -2.233400089496465415e-02 1.302299832715448150e-02 1.629900011027208412e-02 2.026399589498761172e-02 5.342200152086454962e-02 -1.172000016521632972e-02 2.202999914677281589e-03 1.084000166009133851e-03 -6.050000132430237171e-04 -8.899999531611407961e-05 -3.500000636250725193e-05 3.690000005262278489e-04 4.300000096468934623e-04 -4.799996639021326744e-05 1.089999997674408281e-03 -4.810002057705689148e-04 2.581999961722973580e-03 -1.900999999924048514e-03 3.129998063705566476e-04 2.557000023628312659e-03 -4.400000428184191548e-05 -2.569999829543561992e-04 -2.410000196507351710e-04 -2.139999983406679020e-04 2.449996386292362755e-04 5.047000022209261610e-03 3.683999993606306041e-03 -1.759000033859282278e-03 5.289998680791241489e-04 1.114000009181020066e-03 4.729999748568101199e-04 3.650000362186099070e-04 4.459999970245184298e-04 1.045999944154136965e-03 8.500000806365297411e-04 1.528999993377186135e-03 -7.252000627221808111e-03 2.139993409556965734e-04 -1.106979999601837711e-01 9.995000026662767892e-03 5.740007686051655901e-04 1.269499994425568948e-02 -2.209998979169468941e-04 7.300000275781902371e-05 1.949400000114697232e-02 -2.639999966540523477e-03 1.033999820542397556e-03 2.022900001353957963e-02 -8.090000138040850854e-04 1.611999958379119581e-03 1.958600000285537490e-02 1.782000183542354439e-03 -8.029998430028665018e-04 2.224899999096571768e-02 -9.819998402127059437e-04 -6.910000548107891449e-04 1.948000000611072383e-02 9.000133081818928034e-06 -3.059999794246957470e-04 1.991700000025597647e-02 1.245000165118891229e-03 -7.549998862933051443e-04 1.956899999388193173e-02 -1.981999959425019813e-03 9.169998699934600248e-04 1.991500001002438278e-02 1.484999983263052660e-03 1.631000131604235176e-03 1.931499999017384506e-02 -7.499998116011539042e-04 -1.018000036562357984e-03 2.018300000515674611e-02 1.102999459814094693e-03 9.667000117971297907e-03 3.458999998425546507e-02 1.649000064006673301e-03 5.250001434821912651e-04 1.878899999037334997e-02 3.820002521961782358e-04 -1.882999951242573427e-03 1.988899999977230063e-02 -3.112999717076918652e-03 -2.360000216538234510e-03 1.892000001954065661e-02 1.292900889961966053e-02 -1.172359990161987997e-01 5.984000045738071052e-03 -2.330000193534608952e-03 1.096999803772993453e-03 -2.003099998823450537e-02 -4.170000821594215174e-04 -4.400000524273286616e-04 -2.091299999725871467e-02 -1.002799948365630002e-02 -6.479000753654563620e-03 4.771000061824831780e-03 -5.029001441401391957e-03 1.955299962642276929e-02 6.775000008228321442e-03 3.047999621705763280e-03 3.657000212114710005e-03 -1.842700002047741037e-02 1.250999945885475882e-03 -7.289999251563171467e-04 -1.979200000617716004e-02 6.480000215731584372e-04 -1.797999971695309063e-03 -2.072700000178088683e-02 -5.340001039602136710e-04 -9.000006043101996213e-05 -2.006699999696250070e-02 3.829997513230981609e-04 1.771000008203728500e-03 -2.078600000388311497e-02 1.199999184298832801e-04 -3.470000104344315626e-04 -1.953200000031577246e-02 2.799977470883164589e-05 1.531999982315907253e-03 -1.982400000168483764e-02 6.729995615725478750e-04 4.116000027893018491e-03 -2.303200000782624005e-02 -1.289000060828885330e-03 -6.600001175278673174e-04 -2.006299999222565036e-02 1.246999973694425156e-03 -1.120999925791462933e-03 -2.012500000576351866e-02 -6.530006409948548940e-04 6.765999927218726250e-03 -2.342100000315393282e-02
1.578100096585255754e-02 -1.043899877456675590e-02 3.194799992331842642e-02 -1.558700089546517092e-02 1.280299883433031957e-02 1.319400007324937271e-02 -9.170000408567312560e-04 5.869999312873320227e-04 6.410000044753669853e-04 7.130000003620839358e-04 -6.499994689969953825e-05 -8.250000038707300124e-04 -2.227000089120135390e-02 1.297199833197783779e-02 1.628200010996975686e-02 2.019899590585958610e-02 5.328000151597255679e-02 -1.169600016471569921e-02 2.192999915357954095e-03 1.075000165252831385e-03 -6.050000131788352623e-04 -8.499999554300487615e-05 -3.200000605998623126e-05 3.690000005011517706e-04 4.160000088961108189e-04 -3.799996744803802167e-05 1.090999997741697470e-03 -4.740002056137886111e-04 2.579999962253384099e-03 -1.899999999960689861e-03 3.159998072781196993e-04 2.545000023855203356e-03 -4.400000428641496504e-05 -2.559999831702072207e-04 -2.380000195731071713e-04 -2.119999983491843969e-04 2.479996391200091355e-04 5.040000022429159433e-03 3.676999993596738545e-03 -1.756000033573320955e-03 5.249998683030183055e-04 1.111000009168456150e-03 4.739999740469566579e-04 3.760000362982356082e-04 4.499999970080109527e-04 1.041999943700355107e-03 8.560000803340087495e-04 1.528999993393272226e-03 -7.242000627115860283e-03 2.179993417859160004e-04 -1.106239999602429552e-01 9.985000025603943397e-03 5.880007678488630325e-04 1.269499994429690304e-02 -2.209998977397348080e-04 7.000000274882913940e-05 1.948500000114996439e-02 -2.637999965789740962e-03 1.023999820692659277e-03 2.022800001353852739e-02 -8.070000138758431744e-04 1.611999958517394823e-03 1.957300000284433600e-02 1.781000181454531119e-03 -7.769998431004721462e-04 2.222699999094526410e-02 -9.789998402993760167e-04 -6.900000545858960997e-04 1.947800000609316295e-02 4.000132746178777343e-06 -3.019999798088402972e-04 1.991100000027958353e-02 1.238000164783251231e-03 -7.509998868287103176e-04 1.956299999391657510e-02 -1.978999959933999860e-03 9.229998702103620794e-04 1.990500001000183178e-02 1.484999982608331808e-03 1.639000131595245383e-03 1.930599999016585633e-02 -7.469998117264628826e-04 -1.017000036344457067e-03 2.017400000513918865e-02 1.093999459439815415e-03 9.671000117277639765e-03 3.457699998430113775e-02 1.640000063244850727e-03 5.350001428005199920e-04 1.878799999041303598e-02 3.900002519692873874e-04 -1.879999950637531404e-03 1.988899999972514390e-02 -3.099999717988353651e-03 -2.347000215542055686e-03 1.893300001945591449e-02 1.292000889268763060e-02 -1.171449990168884348e-01 5.975000045696851961e-03 -2.330000193874121658e-03 1.101999803779985486e-03 -2.002399998823949784e-02 -4.130000819899537360e-04 -4.410000521078266656e-04 -2.089599999727979537e-02 -1.002299948401402102e-02 -6.475000753286400991e-03 4.761000061793235934e-03 -5.020001440386728450e-03 1.953899962709544982e-02 6.767000008192626710e-03 3.063999621015698911e-03 3.667000213336780653e-03 -1.841500002057571903e-02 1.248999945503452428e-03 -7.229999252945921344e-04 -1.977900000617211287e-02 6.270000212518533119e-04 -1.791999973259571525e-03 -2.070300000167096116e-02 -5.320001041263861452e-04 -8.700006026877179881e-05 -2.005599999697653402e-02 3.849997511734853028e-04 1.774000008368973235e-03 -2.077200000389714876e-02 1.219999185772716423e-04 -3.480000102701856913e-04 -1.951900000032581392e-02 2.399977501300040578e-05 1.528999982027370516e-03 -1.981000000165976035e-02 6.769995615316845008e-04 4.118000028215516861e-03 -2.301200000785031535e-02 -1.288000061098287319e-03 -6.560001174462438186e-04 -2.005699999223516106e-02 1.247999973651913938e-03 -1.119999925709839290e-03 -2.011900000577003869e-02 -6.620006398145943625e-04 6.751999926560029938e-03 -2.339900000309027076e-02
1.569700096171612255e-02 -1.038999878099760785e-02 3.186999992373315549e-02 -1.555700088872081360e-02 1.271199883657425471e-02 1.316900007317467480e-02 -9.120000443870496416e-04 6.319999316425090746e-04 6.180000044028182305e-04 7.130000010162279925e-04 -6.999994684975568342e-05 -7.750000038657356123e-04 -2.216300089031751630e-02 1.295899834005229644e-02 1.626400010939211757e-02 2.011999592126550301e-02 5.307900151003472344e-02 -1.165900016407885563e-02 2.208999913020006940e-03 1.110000166518852619e-03 -5.490000133021136512e-04 -9.399999435664786230e-05 -4.900000675863828449e-05 3.510000005678113894e-04 4.360000120322949464e-04 -8.099996595640916784e-05 1.069999997674251887e-03 -4.670002017566455372e-04 2.528999962782796287e-03 -1.899999999948386118e-03 3.449998097005122812e-04 2.511000026021511546e-03 -7.100000441252898127e-05 -2.649999814445521762e-04 -2.560000201878535474e-04 -1.459999982815259208e-04 2.749996407832979513e-04 5.021000024512131329e-03 3.717999993466680926e-03 -1.750000034951801906e-03 5.459998687947570850e-04 1.149000009114360590e-03 4.829999733016937589e-04 3.860000369809057008e-04 4.519999969483434526e-04 1.106999944823769356e-03 8.410000852479776814e-04 1.526999993049464729e-03 -7.255000628875869946e-03 2.519993409495574705e-04 -1.104769999602051717e-01 9.982000024222167228e-03 6.070007676319609351e-04 1.270499994429448443e-02 -2.169998970944060580e-04 6.300000307232661340e-05 1.950600000113487942e-02 -2.611999967042336664e-03 1.040999822665039307e-03 2.023400001337802984e-02 -7.960000126624636836e-04 1.597999959377296260e-03 1.960100000279759933e-02 1.761000177477599002e-03 -7.249998446210684407e-04 2.221899999100371975e-02 -1.010999840047110271e-03 -6.910000569741002333e-04 1.951000000627079595e-02 3.500013484009875967e-05 -3.309999774822819721e-04 1.989300000013743269e-02 1.256000163521263759e-03 -7.329998854493858162e-04 1.958099999379923906e-02 -1.991999958758683062e-03 9.059998692071912461e-04 1.988500001009057064e-02 1.469999983724578404e-03 1.623000130443810578e-03 1.928899999026463530e-02 -7.419998130491684864e-04 -9.990000359593137567e-04 2.018100000509361058e-02 1.102999459305114465e-03 9.673000117961308431e-03 3.457999998424946680e-02 1.608000062130252169e-03 5.520001404113169868e-04 1.881899999057269277e-02 3.810002511837378629e-04 -1.870999951337182568e-03 1.986999999976583192e-02 -3.063999720523367942e-03 -2.311000212785404868e-03 1.896700001922124040e-02 1.290100888182117711e-02 -1.170029990183483887e-01 5.952000045659888890e-03 -2.326000194464828731e-03 1.111999804112472805e-03 -1.999399998827156716e-02 -4.110000814274228169e-04 -4.480000519505729058e-04 -2.088999999728384169e-02 -1.001299948622163399e-02 -6.448000752560064351e-03 4.731000061711068509e-03 -5.025001440155388993e-03 1.953199962666335790e-02 6.713000008227218603e-03 3.094999618931170825e-03 3.695000215687312128e-03 -1.840900002077480030e-02 1.223999944986728329e-03 -7.149999271693666895e-04 -1.976300000604210710e-02 6.260000206335472085e-04 -1.781999973310229978e-03 -2.067800000167542909e-02 -5.460001045730000432e-04 -8.000006131261227463e-05 -2.004099999690624884e-02 3.619997526623634798e-04 1.753000006611497592e-03 -2.079000000374921914e-02 1.309999200970443688e-04 -3.670000095745301096e-04 -1.950400000035651393e-02 3.199977321608148378e-05 1.553999982649393414e-03 -1.979300000172888943e-02 6.729995626219795754e-04 4.103000027905004572e-03 -2.302000000781325231e-02 -1.317000061146318072e-03 -6.550001196345268777e-04 -2.005199999207608538e-02 1.231999972356807816e-03 -1.101999926907936897e-03 -2.010700000569970100e-02 -6.320006368269521406e-04 6.715999928876882803e-03 -2.335100000321990721e-02
