-4.702364218800000231e+02
-4.702364225300000271e+02
-4.702364237300000127e+02
-4.702364255599999865e+02
-4.702364280499999722e+02
-4.702364312000000268e+02
