1.979190000000000005e+00 3.972729999999999873e+00 4.383969999999999700e+00 5.150599999999999623e-01 4.529880000000000351e+00 1.745800000000000018e+00 1.629070000000000018e+00 1.412460000000000049e+00 1.745789999999999953e+00 4.516560000000000130e+00 3.972739999999999938e+00 4.383960000000000079e+00 3.052439999999999820e+00 4.529889999999999972e+00 1.745800000000000018e+00 4.166459999999999830e+00 1.412469999999999892e+00 1.745780000000000109e+00 7.053950000000000387e+00 3.972729999999999873e+00 4.383960000000000079e+00 5.589809999999999945e+00 4.529880000000000351e+00 1.745789999999999953e+00 6.703839999999999577e+00 1.412460000000000049e+00 1.745789999999999953e+00 1.382900000000000018e+00 5.763480000000000381e+00 7.899639999999999773e+00 2.496919999999999806e+00 2.646069999999999922e+00 7.899610000000000021e+00 3.920300000000000118e+00 5.763490000000000002e+00 7.899630000000000152e+00 5.034309999999999619e+00 2.646069999999999922e+00 7.899630000000000152e+00 6.457679999999999865e+00 5.763480000000000381e+00 7.899639999999999773e+00 7.571679999999999744e+00 2.646059999999999857e+00 7.899610000000000021e+00 2.847039999999999793e+00 5.206330000000000346e+00 1.053778999999999932e+01 5.384409999999999918e+00 5.206330000000000346e+00 1.053780000000000072e+01 7.921800000000000175e+00 5.206339999999999968e+00 1.053778999999999932e+01 3.714879999999999960e+00 6.439930000000000376e+00 1.669163999999999959e+01 2.250750000000000028e+00 6.997090000000000032e+00 1.405345999999999940e+01 3.364770000000000039e+00 3.879669999999999952e+00 1.405345999999999940e+01 6.252259999999999707e+00 6.439939999999999998e+00 1.669163999999999959e+01 4.788140000000000285e+00 6.997090000000000032e+00 1.405348000000000042e+01 5.902149999999999785e+00 3.879649999999999821e+00 1.405345999999999940e+01 8.789649999999999963e+00 6.439939999999999998e+00 1.669162999999999997e+01 7.325520000000000032e+00 6.997080000000000410e+00 1.405348000000000042e+01 8.439529999999999532e+00 3.879659999999999886e+00 1.405344999999999978e+01 8.477330000000000254e+00 7.090169999999999639e+00 4.383980000000000210e+00 2.288539999999999797e+00 1.020754999999999946e+01 4.383960000000000079e+00 1.938430000000000097e+00 7.647280000000000300e+00 1.745770000000000044e+00 3.402569999999999872e+00 7.090169999999999639e+00 4.383980000000000210e+00 4.825910000000000366e+00 1.020753999999999984e+01 4.383960000000000079e+00 4.475799999999999557e+00 7.647269999999999790e+00 1.745780000000000109e+00 5.939949999999999619e+00 7.090160000000000018e+00 4.383989999999999831e+00 7.363299999999999734e+00 1.020753999999999984e+01 4.383960000000000079e+00 7.013189999999999813e+00 7.647280000000000300e+00 1.745789999999999953e+00 2.806270000000000042e+00 8.880879999999999441e+00 7.899619999999999642e+00 5.343650000000000233e+00 8.880879999999999441e+00 7.899619999999999642e+00 7.881039999999999601e+00 8.880869999999999820e+00 7.899619999999999642e+00 9.345179999999999154e+00 8.323769999999999669e+00 1.053782999999999959e+01 3.156379999999999963e+00 1.144114000000000075e+01 1.053781000000000034e+01 4.270430000000000170e+00 8.323779999999999291e+00 1.053781999999999996e+01 5.693749999999999645e+00 1.144115000000000038e+01 1.053781000000000034e+01 6.807809999999999917e+00 8.323769999999999669e+00 1.053781000000000034e+01 8.231139999999999901e+00 1.144115000000000038e+01 1.053781000000000034e+01 1.021302999999999983e+01 9.557380000000000209e+00 1.669164999999999921e+01 4.024230000000000196e+00 1.267474999999999952e+01 1.669163999999999959e+01 3.674110000000000209e+00 1.011448000000000036e+01 1.405344999999999978e+01 5.138279999999999959e+00 9.557370000000000587e+00 1.669164999999999921e+01 6.561619999999999564e+00 1.267474999999999952e+01 1.669162999999999997e+01 6.211500000000000021e+00 1.011447000000000074e+01 1.405344999999999978e+01 7.675639999999999574e+00 9.557380000000000209e+00 1.669164999999999921e+01 9.099000000000000199e+00 1.267473999999999990e+01 1.669162999999999997e+01 8.748879999999999768e+00 1.011447000000000074e+01 1.405345999999999940e+01 8.244000000000000217e-01 1.076470999999999911e+01 1.745780000000000109e+00 3.361779999999999990e+00 1.076469999999999949e+01 1.745800000000000018e+00 5.899169999999999803e+00 1.076469999999999949e+01 1.745789999999999953e+00 8.786680000000000490e+00 1.332498000000000005e+01 4.383989999999999831e+00 2.247759999999999980e+00 1.388208999999999982e+01 1.745770000000000044e+00 3.711920000000000108e+00 1.332498999999999967e+01 4.383969999999999700e+00 4.785140000000000171e+00 1.388208999999999982e+01 1.745789999999999953e+00 6.249310000000000365e+00 1.332499999999999929e+01 4.383989999999999831e+00 7.322540000000000049e+00 1.388208999999999982e+01 1.745780000000000109e+00 1.692250000000000032e+00 1.199830000000000041e+01 7.899630000000000152e+00 4.229639999999999844e+00 1.199830000000000041e+01 7.899630000000000152e+00 6.767019999999999591e+00 1.199830000000000041e+01 7.899630000000000152e+00 3.115619999999999834e+00 1.511569000000000074e+01 7.899610000000000021e+00 5.652999999999999581e+00 1.511567999999999934e+01 7.899619999999999642e+00 8.190379999999999328e+00 1.511567999999999934e+01 7.899610000000000021e+00 9.654529999999999390e+00 1.455859000000000059e+01 1.053782999999999959e+01 4.579769999999999897e+00 1.455859000000000059e+01 1.053781000000000034e+01 7.117140000000000022e+00 1.455857999999999919e+01 1.053781999999999996e+01 2.560109999999999886e+00 1.323189999999999955e+01 1.405348000000000042e+01 5.097489999999999633e+00 1.323189999999999955e+01 1.405345999999999940e+01 7.634870000000000267e+00 1.323189999999999955e+01 1.405347000000000079e+01 1.052238000000000007e+01 1.579218999999999973e+01 1.669164999999999921e+01 3.983470000000000066e+00 1.634929999999999950e+01 1.405344999999999978e+01 5.447619999999999685e+00 1.579219999999999935e+01 1.669164999999999921e+01 6.520839999999999748e+00 1.634928999999999988e+01 1.405344999999999978e+01 7.985000000000000320e+00 1.579218999999999973e+01 1.669166999999999845e+01 9.058239999999999625e+00 1.634928999999999988e+01 1.405344999999999978e+01 9.096040000000000347e+00 1.955980999999999881e+01 4.383969999999999700e+00 4.021270000000000344e+00 1.955979999999999919e+01 4.383980000000000210e+00 6.558650000000000091e+00 1.955979999999999919e+01 4.383980000000000210e+00 2.597890000000000033e+00 1.644237000000000037e+01 4.383960000000000079e+00 1.133760000000000101e+00 1.699951000000000079e+01 1.745780000000000109e+00 5.135270000000000223e+00 1.644236000000000075e+01 4.383969999999999700e+00 3.671120000000000161e+00 1.699952000000000041e+01 1.745800000000000018e+00 7.672649999999999970e+00 1.644237000000000037e+01 4.383960000000000079e+00 6.208510000000000417e+00 1.699952000000000041e+01 1.745789999999999953e+00 2.001609999999999889e+00 1.823311999999999955e+01 7.899630000000000152e+00 4.538979999999999571e+00 1.823310999999999993e+01 7.899630000000000152e+00 7.076369999999999827e+00 1.823311999999999955e+01 7.899639999999999773e+00 9.963889999999999247e+00 2.079339999999999833e+01 1.053781999999999996e+01 4.889109999999999623e+00 2.079342000000000112e+01 1.053782999999999959e+01 7.426499999999999879e+00 2.079341000000000150e+01 1.053781999999999996e+01 3.465720000000000134e+00 1.767596999999999952e+01 1.053780000000000072e+01 6.003110000000000390e+00 1.767595999999999989e+01 1.053780000000000072e+01 8.540480000000000516e+00 1.767595999999999989e+01 1.053780000000000072e+01 1.083173000000000030e+01 2.202700000000000102e+01 1.669165999999999883e+01 5.756969999999999921e+00 2.202700000000000102e+01 1.669166999999999845e+01 8.294349999999999667e+00 2.202701000000000064e+01 1.669164999999999921e+01 4.333590000000000053e+00 1.890956999999999866e+01 1.669162999999999997e+01 2.869439999999999991e+00 1.946671999999999869e+01 1.405345999999999940e+01 6.870949999999999669e+00 1.890956999999999866e+01 1.669162999999999997e+01 5.406839999999999868e+00 1.946671999999999869e+01 1.405347000000000079e+01 9.408329999999999416e+00 1.890956999999999866e+01 1.669163999999999959e+01 7.944219999999999615e+00 1.946670999999999907e+01 1.405345999999999940e+01 5.354100000000000525e-01 2.692600000000000104e+00 3.064839999999999787e+00 1.688309999999999977e+00 3.223180000000000156e+00 5.416400000000000103e-01 6.763080000000000425e+00 3.223170000000000091e+00 5.416499999999999648e-01 3.072799999999999976e+00 2.692610000000000170e+00 3.064849999999999852e+00 4.225690000000000168e+00 3.223170000000000091e+00 5.416499999999999648e-01 5.610179999999999723e+00 2.692600000000000104e+00 3.064849999999999852e+00 8.418089999999999407e+00 5.279449999999999754e+00 5.588119999999999976e+00 1.919990000000000085e+00 2.162049999999999805e+00 5.588160000000000238e+00 3.343329999999999913e+00 5.279440000000000133e+00 5.588110000000000355e+00 4.457360000000000433e+00 2.162049999999999805e+00 5.588160000000000238e+00 5.880700000000000038e+00 5.279449999999999754e+00 5.588119999999999976e+00 6.994740000000000180e+00 2.162049999999999805e+00 5.588149999999999729e+00 1.403259999999999952e+00 3.926200000000000134e+00 9.218669999999999476e+00 2.556150000000000144e+00 4.456769999999999676e+00 6.695490000000000386e+00 7.630910000000000082e+00 4.456780000000000186e+00 6.695479999999999876e+00 3.940650000000000208e+00 3.926210000000000200e+00 9.218680000000000874e+00 5.093539999999999957e+00 4.456780000000000186e+00 6.695479999999999876e+00 6.478030000000000399e+00 3.926190000000000069e+00 9.218690000000000495e+00 9.285940000000000083e+00 6.513040000000000163e+00 1.174194999999999922e+01 2.787840000000000096e+00 3.395649999999999835e+00 1.174200000000000088e+01 4.211179999999999701e+00 6.513049999999999784e+00 1.174196000000000062e+01 5.325219999999999843e+00 3.395649999999999835e+00 1.174200000000000088e+01 6.748549999999999827e+00 6.513049999999999784e+00 1.174194999999999922e+01 7.862599999999999589e+00 3.395649999999999835e+00 1.174198999999999948e+01 3.423999999999999932e+00 5.690380000000000216e+00 1.284932000000000052e+01 8.498780000000000001e+00 5.690369999999999706e+00 1.284932000000000052e+01 5.961380000000000123e+00 5.690380000000000216e+00 1.284930999999999912e+01 2.271110000000000184e+00 5.159799999999999720e+00 1.537251000000000012e+01 1.015380000000000038e+01 7.746640000000000192e+00 1.789577999999999847e+01 3.655679999999999819e+00 4.629240000000000244e+00 1.789584999999999937e+01 4.808500000000000441e+00 5.159799999999999720e+00 1.537252999999999936e+01 5.079030000000000378e+00 7.746649999999999814e+00 1.789580000000000126e+01 6.193060000000000009e+00 4.629249999999999865e+00 1.789583999999999975e+01 7.345869999999999678e+00 5.159790000000000099e+00 1.537251999999999974e+01 7.616399999999999615e+00 7.746640000000000192e+00 1.789580000000000126e+01 8.730439999999999756e+00 4.629260000000000375e+00 1.789583000000000013e+01 1.958820000000000006e+00 5.810030000000000250e+00 3.064900000000000180e+00 4.496199999999999974e+00 5.810030000000000250e+00 3.064890000000000114e+00 7.033579999999999721e+00 5.810030000000000250e+00 3.064890000000000114e+00 8.447599999999999554e-01 8.927410000000000068e+00 3.064839999999999787e+00 5.742899999999999672e-01 6.340580000000000105e+00 5.416299999999999448e-01 3.382150000000000212e+00 8.927400000000000446e+00 3.064839999999999787e+00 3.111670000000000158e+00 6.340580000000000105e+00 5.416400000000000103e-01 5.919520000000000337e+00 8.927410000000000068e+00 3.064839999999999787e+00 5.649070000000000036e+00 6.340589999999999726e+00 5.416299999999999448e-01 1.997649999999999926e+00 9.457990000000000563e+00 5.416499999999999648e-01 4.535040000000000404e+00 9.457990000000000563e+00 5.416400000000000103e-01 7.072429999999999772e+00 9.457990000000000563e+00 5.416299999999999448e-01 2.229340000000000099e+00 8.396860000000000213e+00 5.588160000000000238e+00 4.766709999999999781e+00 8.396860000000000213e+00 5.588169999999999860e+00 7.304090000000000416e+00 8.396860000000000213e+00 5.588169999999999860e+00 2.826659999999999950e+00 7.043630000000000280e+00 9.218719999999999359e+00 5.364060000000000272e+00 7.043639999999999901e+00 9.218719999999999359e+00 7.901430000000000398e+00 7.043630000000000280e+00 9.218719999999999359e+00 1.712599999999999900e+00 1.016100999999999921e+01 9.218690000000000495e+00 1.442150000000000043e+00 7.574180000000000135e+00 6.695479999999999876e+00 4.250000000000000000e+00 1.016102000000000061e+01 9.218680000000000874e+00 3.979530000000000012e+00 7.574189999999999756e+00 6.695470000000000255e+00 6.787379999999999747e+00 1.016099999999999959e+01 9.218690000000000495e+00 6.516919999999999824e+00 7.574180000000000135e+00 6.695470000000000255e+00 2.865499999999999936e+00 1.069159999999999933e+01 6.695470000000000255e+00 5.402890000000000192e+00 1.069159999999999933e+01 6.695490000000000386e+00 7.940260000000000318e+00 1.069159999999999933e+01 6.695479999999999876e+00 3.097170000000000201e+00 9.630459999999999354e+00 1.174198999999999948e+01 5.634549999999999947e+00 9.630470000000000752e+00 1.174200000000000088e+01 8.171950000000000713e+00 9.630470000000000752e+00 1.174198999999999948e+01 2.310000000000000053e+00 8.807769999999999655e+00 1.284929999999999950e+01 4.847369999999999735e+00 8.807779999999999276e+00 1.284930999999999912e+01 7.384769999999999612e+00 8.807779999999999276e+00 1.284930999999999912e+01 3.733350000000000168e+00 1.192519000000000062e+01 1.284933000000000014e+01 6.270730000000000359e+00 1.192517999999999923e+01 1.284932000000000052e+01 8.808120000000000616e+00 1.192519000000000062e+01 1.284932000000000052e+01 3.694519999999999804e+00 8.277240000000000819e+00 1.537256999999999962e+01 6.231900000000000439e+00 8.277229999999999421e+00 1.537256999999999962e+01 8.769280000000000186e+00 8.277240000000000819e+00 1.537256000000000000e+01 2.580459999999999976e+00 1.139461000000000013e+01 1.537252999999999936e+01 3.965030000000000054e+00 1.086406000000000027e+01 1.789583999999999975e+01 5.117840000000000167e+00 1.139461000000000013e+01 1.537252999999999936e+01 6.502399999999999736e+00 1.086406000000000027e+01 1.789583999999999975e+01 7.655210000000000292e+00 1.139461000000000013e+01 1.537251000000000012e+01 9.039780000000000371e+00 1.086406999999999989e+01 1.789583999999999975e+01 5.958420000000000272e+00 1.257540000000000013e+01 5.416400000000000103e-01 2.268170000000000019e+00 1.204482999999999926e+01 3.064890000000000114e+00 3.421030000000000015e+00 1.257539000000000051e+01 5.416400000000000103e-01 4.805539999999999701e+00 1.204484000000000066e+01 3.064890000000000114e+00 8.836399999999999810e-01 1.257539000000000051e+01 5.416299999999999448e-01 7.342929999999999957e+00 1.204485000000000028e+01 3.064890000000000114e+00 8.727439999999999642e+00 1.151425000000000054e+01 5.588119999999999976e+00 3.652680000000000149e+00 1.151425000000000054e+01 5.588119999999999976e+00 6.190059999999999896e+00 1.151426999999999978e+01 5.588110000000000355e+00 2.538670000000000204e+00 1.463167999999999935e+01 5.588169999999999860e+00 5.076050000000000395e+00 1.463167999999999935e+01 5.588160000000000238e+00 7.613430000000000142e+00 1.463167999999999935e+01 5.588160000000000238e+00 6.826260000000000439e+00 1.380898999999999965e+01 6.695459999999999745e+00 3.136010000000000186e+00 1.327843999999999980e+01 9.218740000000000379e+00 4.288870000000000182e+00 1.380898999999999965e+01 6.695459999999999745e+00 5.673399999999999999e+00 1.327844999999999942e+01 9.218740000000000379e+00 1.751489999999999991e+00 1.380899999999999928e+01 6.695470000000000255e+00 8.210770000000000124e+00 1.327844999999999942e+01 9.218719999999999359e+00 9.595280000000000697e+00 1.274784999999999968e+01 1.174194999999999922e+01 4.520529999999999937e+00 1.274785999999999930e+01 1.174193999999999960e+01 7.057900000000000063e+00 1.274785999999999930e+01 1.174194999999999922e+01 3.406519999999999992e+00 1.586528000000000027e+01 1.174200000000000088e+01 5.943900000000000183e+00 1.586527000000000065e+01 1.174198999999999948e+01 8.481289999999999552e+00 1.586528000000000027e+01 1.174198999999999948e+01 7.694119999999999848e+00 1.504259000000000057e+01 1.284929999999999950e+01 5.156719999999999970e+00 1.504260000000000019e+01 1.284930999999999912e+01 2.619339999999999780e+00 1.504260000000000019e+01 1.284932000000000052e+01 1.046313999999999922e+01 1.398146999999999984e+01 1.789579000000000164e+01 4.003870000000000040e+00 1.451205000000000034e+01 1.537256999999999962e+01 5.388379999999999725e+00 1.398146999999999984e+01 1.789579000000000164e+01 6.541240000000000165e+00 1.451204000000000072e+01 1.537256999999999962e+01 7.925749999999999851e+00 1.398146999999999984e+01 1.789577999999999847e+01 9.078620000000000800e+00 1.451204000000000072e+01 1.537256000000000000e+01 4.274359999999999715e+00 1.709887000000000157e+01 1.789583999999999975e+01 6.811759999999999593e+00 1.709887000000000157e+01 1.789583999999999975e+01 9.349140000000000228e+00 1.709888000000000119e+01 1.789583999999999975e+01 1.154109999999999969e+00 1.516221999999999959e+01 3.064839999999999787e+00 2.306989999999999874e+00 1.569280000000000008e+01 5.416400000000000103e-01 2.577510000000000190e+00 1.827965999999999980e+01 3.064880000000000049e+00 3.691489999999999938e+00 1.516222999999999921e+01 3.064839999999999787e+00 4.844389999999999752e+00 1.569280000000000008e+01 5.416299999999999448e-01 5.114899999999999558e+00 1.827965999999999980e+01 3.064880000000000049e+00 6.228869999999999685e+00 1.516221999999999959e+01 3.064849999999999852e+00 7.381770000000000387e+00 1.569280999999999970e+01 5.416400000000000103e-01 7.652269999999999683e+00 1.827965999999999980e+01 3.064890000000000114e+00 1.192989999999999995e+00 1.881019999999999825e+01 5.416400000000000103e-01 6.267750000000000377e+00 1.881021000000000143e+01 5.416400000000000103e-01 3.730379999999999807e+00 1.881019999999999825e+01 5.416400000000000103e-01 9.036789999999999878e+00 1.774906999999999968e+01 5.588110000000000355e+00 3.962009999999999810e+00 1.774906999999999968e+01 5.588110000000000355e+00 6.499399999999999622e+00 1.774907999999999930e+01 5.588110000000000355e+00 2.021959999999999980e+00 1.639582000000000050e+01 9.218690000000000495e+00 3.174840000000000106e+00 1.692641000000000062e+01 6.695479999999999876e+00 3.445349999999999913e+00 1.951325999999999894e+01 9.218740000000000379e+00 4.559339999999999726e+00 1.639583000000000013e+01 9.218680000000000874e+00 5.712220000000000297e+00 1.692642000000000024e+01 6.695479999999999876e+00 5.982739999999999725e+00 1.951326999999999856e+01 9.218740000000000379e+00 7.096720000000000361e+00 1.639582000000000050e+01 9.218680000000000874e+00 8.249610000000000554e+00 1.692641000000000062e+01 6.695479999999999876e+00 8.520129999999999981e+00 1.951325999999999894e+01 9.218740000000000379e+00 2.060839999999999783e+00 2.004382000000000019e+01 6.695470000000000255e+00 7.135600000000000165e+00 2.004381000000000057e+01 6.695470000000000255e+00 4.598220000000000418e+00 2.004381000000000057e+01 6.695470000000000255e+00 9.904640000000000555e+00 1.898266999999999882e+01 1.174194999999999922e+01 4.829869999999999663e+00 1.898266999999999882e+01 1.174196000000000062e+01 7.367250000000000298e+00 1.898267999999999844e+01 1.174196000000000062e+01 4.042699999999999960e+00 1.816000000000000014e+01 1.284932000000000052e+01 6.580079999999999707e+00 1.816000999999999976e+01 1.284930999999999912e+01 9.117459999999999454e+00 1.816000999999999976e+01 1.284932000000000052e+01 2.928679999999999950e+00 2.127740999999999971e+01 1.284929999999999950e+01 8.003460000000000463e+00 2.127741999999999933e+01 1.284930999999999912e+01 5.466070000000000206e+00 2.127741999999999933e+01 1.284929999999999950e+01 2.889810000000000212e+00 1.762941999999999965e+01 1.537251999999999974e+01 1.077247999999999983e+01 2.021628000000000114e+01 1.789579000000000164e+01 4.313209999999999766e+00 2.074687000000000126e+01 1.537256000000000000e+01 5.427190000000000403e+00 1.762941999999999965e+01 1.537251999999999974e+01 5.697720000000000340e+00 2.021628000000000114e+01 1.789579000000000164e+01 6.850600000000000023e+00 2.074686000000000163e+01 1.537256999999999962e+01 7.964559999999999640e+00 1.762941999999999965e+01 1.537252999999999936e+01 8.235099999999999199e+00 2.021628000000000114e+01 1.789577999999999847e+01 9.387959999999999638e+00 2.074687000000000126e+01 1.537256999999999962e+01