-2.253641107460000057e+03
-2.254203584530000171e+03
-2.256633247130000200e+03
-2.260854644300000018e+03
-2.266736404740000125e+03
-2.274095740260000184e+03
-2.282705684990000009e+03
-2.292304892040000141e+03
-2.302610144679999848e+03
-2.313331602050000129e+03
