2.584029999999999938e-01 -3.969520000000000270e-01 3.475829999999999753e-01 -2.597079999999999944e-01 3.971140000000000225e-01 -3.474340000000000206e-01 -2.587639999999999940e-01 3.974070000000000102e-01 -3.474289999999999878e-01 2.589989999999999792e-01 -3.970199999999999840e-01 3.479920000000000235e-01 -2.587149999999999728e-01 3.966390000000000193e-01 -3.473829999999999973e-01 -2.591589999999999727e-01 3.962820000000000231e-01 -3.472279999999999811e-01 2.599310000000000231e-01 -3.966419999999999946e-01 3.470639999999999836e-01 -2.587289999999999868e-01 3.969300000000000050e-01 -3.473249999999999948e-01 -2.591640000000000055e-01 3.967390000000000083e-01 -3.480550000000000033e-01 -2.590509999999999757e-01 3.959139999999999882e-01 -3.482970000000000232e-01 -2.597340000000000204e-01 3.970569999999999933e-01 -3.477750000000000008e-01 -2.582900000000000196e-01 3.969320000000000070e-01 -3.475269999999999748e-01 -2.587789999999999813e-01 3.972010000000000263e-01 -3.480199999999999960e-01 -2.593799999999999994e-01 3.963539999999999841e-01 -3.483680000000000110e-01 -2.582400000000000251e-01 3.972049999999999748e-01 -3.477720000000000256e-01 2.585680000000000200e-01 -3.962470000000000159e-01 3.475550000000000028e-01 2.594899999999999984e-01 -3.960609999999999964e-01 3.474999999999999756e-01 2.596660000000000079e-01 -3.966419999999999946e-01 3.475929999999999853e-01 2.585270000000000068e-01 -3.970190000000000108e-01 3.476859999999999951e-01 -2.591939999999999800e-01 3.976439999999999975e-01 -3.468849999999999989e-01 -2.589609999999999967e-01 3.966160000000000241e-01 -3.465409999999999879e-01 2.587740000000000040e-01 -3.970460000000000100e-01 3.473220000000000196e-01 -2.583150000000000168e-01 3.967049999999999743e-01 -3.471029999999999949e-01 -2.589099999999999735e-01 3.969170000000000198e-01 -3.465509999999999979e-01 2.592039999999999900e-01 -3.969130000000000158e-01 3.479140000000000010e-01 -2.592929999999999957e-01 3.970360000000000000e-01 -3.476380000000000026e-01 -2.592329999999999912e-01 3.972870000000000013e-01 -3.474280000000000146e-01 2.594150000000000067e-01 -3.975609999999999977e-01 3.477859999999999840e-01 2.590160000000000240e-01 -3.966470000000000273e-01 3.475880000000000081e-01 -2.595700000000000229e-01 3.972930000000000073e-01 -3.467020000000000102e-01 2.589850000000000207e-01 -3.970210000000000128e-01 3.478600000000000025e-01 2.587679999999999980e-01 -3.962160000000000126e-01 3.477199999999999736e-01 -2.588770000000000238e-01 3.968349999999999933e-01 -3.473200000000000176e-01 2.587200000000000055e-01 -3.972709999999999853e-01 3.474869999999999903e-01 2.589130000000000043e-01 -3.974300000000000055e-01 3.472299999999999831e-01 -2.584270000000000178e-01 3.972660000000000080e-01 -3.474389999999999978e-01 -2.593989999999999907e-01 3.970429999999999793e-01 -3.479450000000000043e-01 -2.589520000000000155e-01 3.966609999999999858e-01 -3.478609999999999758e-01 -2.584339999999999971e-01 3.974929999999999852e-01 -3.473149999999999848e-01 2.590000000000000080e-01 -3.971100000000000185e-01 3.466199999999999837e-01 2.594409999999999772e-01 -3.973550000000000137e-01 3.471739999999999826e-01 2.595020000000000104e-01 -3.972260000000000235e-01 3.470409999999999884e-01 2.584119999999999751e-01 -3.969840000000000035e-01 3.468200000000000172e-01 2.585439999999999960e-01 -3.968180000000000041e-01 3.473669999999999813e-01 2.593820000000000014e-01 -3.973430000000000017e-01 3.475790000000000268e-01 2.595379999999999909e-01 -3.970029999999999948e-01 3.483140000000000125e-01 2.588010000000000033e-01 -3.966509999999999758e-01 3.471850000000000214e-01 -2.588520000000000265e-01 3.972550000000000248e-01 -3.479059999999999930e-01 2.586720000000000130e-01 -3.970489999999999853e-01 3.474320000000000186e-01 2.583610000000000073e-01 -3.972930000000000073e-01 3.481360000000000010e-01 -2.590660000000000185e-01 3.969539999999999735e-01 -3.478470000000000173e-01 2.587070000000000203e-01 -3.973740000000000050e-01 3.469269999999999854e-01 2.590180000000000260e-01 -3.968439999999999745e-01 3.477080000000000171e-01 -2.588199999999999945e-01 3.970310000000000228e-01 -3.478899999999999770e-01 -2.590509999999999757e-01 3.961970000000000214e-01 -3.473220000000000196e-01 -2.590810000000000057e-01 3.966029999999999833e-01 -3.480860000000000065e-01 -2.586979999999999835e-01 3.973240000000000105e-01 -3.473530000000000229e-01 2.590839999999999810e-01 -3.972069999999999768e-01 3.475289999999999768e-01 -2.589670000000000027e-01 3.970580000000000220e-01 -3.472489999999999744e-01 2.598559999999999759e-01 -3.969239999999999990e-01 3.467680000000000207e-01 -2.597229999999999817e-01 3.973559999999999870e-01 -3.475750000000000228e-01 2.584170000000000078e-01 -3.973039999999999905e-01 3.470989999999999909e-01 -2.587889999999999913e-01 3.969320000000000070e-01 -3.473459999999999881e-01 -2.587149999999999728e-01 3.971560000000000090e-01 -3.474590000000000178e-01 -2.581649999999999778e-01 3.969159999999999910e-01 -3.472459999999999991e-01 -2.596249999999999947e-01 3.970480000000000120e-01 -3.473729999999999873e-01 -2.594000000000000195e-01 3.965730000000000088e-01 -3.478470000000000173e-01 -2.592419999999999725e-01 3.960159999999999791e-01 -3.479630000000000223e-01 -2.583779999999999966e-01 3.972539999999999960e-01 -3.470889999999999809e-01 2.594620000000000259e-01 -3.963929999999999954e-01 3.472160000000000246e-01 2.596680000000000099e-01 -3.967060000000000031e-01 3.476110000000000033e-01 2.586370000000000058e-01 -3.963949999999999974e-01 3.474599999999999911e-01 -2.589270000000000183e-01 3.966020000000000101e-01 -3.465949999999999864e-01 -2.592240000000000100e-01 3.970420000000000060e-01 -3.474360000000000226e-01 -2.589139999999999775e-01 3.963550000000000129e-01 -3.464740000000000042e-01 2.586459999999999870e-01 -3.969710000000000183e-01 3.470770000000000244e-01 -2.593779999999999974e-01 3.968340000000000201e-01 -3.472149999999999959e-01 2.591319999999999735e-01 -3.970810000000000173e-01 3.475900000000000101e-01 -2.592209999999999792e-01 3.976250000000000062e-01 -3.468189999999999884e-01 2.584899999999999975e-01 -3.971899999999999875e-01 3.472850000000000104e-01 -2.585089999999999888e-01 3.967269999999999963e-01 -3.468019999999999992e-01 2.586600000000000010e-01 -3.960270000000000179e-01 3.477430000000000243e-01 2.589159999999999795e-01 -3.972919999999999785e-01 3.470500000000000251e-01 2.589580000000000215e-01 -3.961419999999999941e-01 3.476389999999999758e-01 2.585379999999999900e-01 -3.972049999999999748e-01 3.469229999999999814e-01 -2.588300000000000045e-01 3.965810000000000168e-01 -3.472489999999999744e-01 2.592740000000000045e-01 -3.972350000000000048e-01 3.471330000000000249e-01 -2.582960000000000256e-01 3.968369999999999953e-01 -3.475599999999999801e-01 2.590069999999999872e-01 -3.967829999999999968e-01 3.472120000000000206e-01 -2.593639999999999834e-01 3.970310000000000228e-01 -3.468689999999999829e-01 -2.591129999999999822e-01 3.965949999999999753e-01 -3.476600000000000246e-01 -2.584009999999999918e-01 3.977080000000000060e-01 -3.471839999999999926e-01 -2.592079999999999940e-01 3.970179999999999820e-01 -3.479220000000000090e-01 2.583679999999999866e-01 -3.970719999999999805e-01 3.471009999999999929e-01 2.594049999999999967e-01 -3.975920000000000010e-01 3.476000000000000201e-01 2.594080000000000275e-01 -3.976410000000000222e-01 3.473160000000000136e-01 2.586550000000000238e-01 -3.968050000000000188e-01 3.469809999999999839e-01 2.589080000000000270e-01 -3.968889999999999918e-01 3.466540000000000177e-01 2.596189999999999887e-01 -3.967939999999999801e-01 3.469570000000000154e-01 2.584750000000000103e-01 -3.975810000000000177e-01 3.482540000000000080e-01 2.590830000000000077e-01 -3.972990000000000133e-01 3.476909999999999723e-01 2.587849999999999873e-01 -3.970130000000000048e-01 3.474450000000000038e-01 2.586229999999999918e-01 -3.968740000000000046e-01 3.470190000000000219e-01 -2.589679999999999760e-01 3.967910000000000048e-01 -3.474530000000000118e-01 2.594429999999999792e-01 -3.964440000000000186e-01 3.482680000000000220e-01 -2.589250000000000163e-01 3.967879999999999741e-01 -3.473959999999999826e-01 2.588779999999999970e-01 -3.966979999999999951e-01 3.471609999999999974e-01 -2.589040000000000230e-01 3.974050000000000082e-01 -3.474900000000000211e-01 1.740000000000000010e-04 -4.979999999999999618e-04 1.105000000000000079e-03 -7.502525999999999584e+00 -1.312488899999999958e+01 1.834396600000000177e+01 -7.501235999999999571e+00 -1.312283099999999969e+01 1.834319699999999997e+01 3.849999999999999798e-04 -7.100000000000000191e-04 1.417999999999999990e-03 -7.502385000000000304e+00 -1.312415799999999955e+01 1.834390799999999899e+01 2.480000000000000108e-04 -3.490000000000000263e-04 1.195000000000000099e-03 7.502296000000000298e+00 1.312354299999999974e+01 -1.834300899999999857e+01 7.503584000000000032e+00 1.312637699999999974e+01 -1.834547399999999939e+01 7.500733999999999568e+00 1.312309300000000079e+01 -1.834243800000000135e+01 7.502578999999999887e+00 1.312477299999999936e+01 -1.834454300000000160e+01 7.501981999999999928e+00 1.312367799999999995e+01 -1.834294900000000084e+01 7.502488999999999741e+00 1.312535500000000077e+01 -1.834428000000000125e+01 4.270000000000000249e-04 -2.840000000000000185e-04 -5.339999999999999695e-04 -7.501033999999999757e+00 -1.312240300000000026e+01 1.833973599999999848e+01 -7.501666000000000167e+00 -1.312339099999999981e+01 1.834116699999999867e+01 -4.600000000000000004e-05 -2.159999999999999919e-04 -4.659999999999999971e-04 -7.502200000000000202e+00 -1.312365400000000015e+01 1.834115099999999998e+01 1.200000000000000030e-04 6.999999999999999895e-06 -4.400000000000000157e-04 7.501738999999999713e+00 1.312365699999999968e+01 -1.834343900000000005e+01 7.503262999999999572e+00 1.312554800000000021e+01 -1.834507699999999986e+01 7.501049000000000078e+00 1.312311099999999975e+01 -1.834225700000000003e+01 7.503336000000000006e+00 1.312582399999999971e+01 -1.834573299999999918e+01 7.502677000000000263e+00 1.312372599999999956e+01 -1.834312200000000104e+01 7.503953000000000095e+00 1.312612299999999976e+01 -1.834568600000000060e+01 -7.501484999999999737e+00 -1.312355299999999936e+01 1.834202000000000155e+01 -7.502609999999999779e+00 -1.312394199999999955e+01 1.834279000000000082e+01 -7.500985000000000014e+00 -1.312374999999999936e+01 1.834221499999999949e+01 3.469999999999999777e-04 -5.619999999999999996e-04 1.737000000000000046e-03 7.501337999999999617e+00 1.312365299999999912e+01 -1.834162299999999846e+01 7.504170000000000229e+00 1.312664099999999934e+01 -1.834549799999999919e+01 -1.649999999999999991e-04 -7.499999999999999343e-05 1.910999999999999938e-03 7.502429000000000237e+00 1.312424999999999997e+01 -1.834277900000000017e+01 7.502737999999999907e+00 1.312553499999999929e+01 -1.834453999999999851e+01 3.069999999999999812e-04 -3.099999999999999999e-04 1.978000000000000157e-03 7.502530000000000143e+00 1.312427100000000024e+01 -1.834259399999999829e+01 7.503027999999999587e+00 1.312509799999999949e+01 -1.834352300000000113e+01 1.079999999999999960e-04 -4.369999999999999970e-04 1.279999999999999942e-04 -3.999999999999999819e-06 -6.419999999999999925e-04 6.299999999999999990e-05 1.810000000000000085e-04 -6.329999999999999906e-04 5.169999999999999899e-04 -1.440000000000000036e-04 -1.720000000000000066e-04 4.440000000000000045e-04 -7.503982999999999848e+00 -1.312707999999999942e+01 1.834624600000000072e+01 2.730000000000000222e-04 3.350000000000000113e-04 6.459999999999999814e-04 -7.503794000000000075e+00 -1.312645099999999942e+01 1.834568099999999902e+01 2.889999999999999774e-04 -5.199999999999999680e-05 2.719999999999999979e-04 -7.504343000000000430e+00 -1.312670800000000071e+01 1.834696299999999880e+01 -7.500987000000000293e+00 -1.312271299999999918e+01 1.834255100000000027e+01 -7.501557000000000031e+00 -1.312323699999999960e+01 1.834327299999999994e+01 -7.502303999999999640e+00 -1.312431899999999985e+01 1.834400000000000119e+01 7.503012000000000015e+00 1.312435100000000077e+01 -1.834546100000000024e+01 7.504349000000000380e+00 1.312564799999999998e+01 -1.834580100000000158e+01 7.503987999999999658e+00 1.312632999999999939e+01 -1.834726399999999913e+01 4.000000000000000327e-05 -2.849999999999999886e-04 -1.276999999999999923e-03 -1.999999999999999909e-06 -2.759999999999999867e-04 -1.208000000000000089e-03 -2.590000000000000071e-04 -1.489999999999999897e-04 -8.649999999999999920e-04 3.319999999999999926e-04 2.620000000000000258e-04 2.959999999999999849e-04 -7.502297999999999689e+00 -1.312649599999999950e+01 1.834299599999999941e+01 -1.530000000000000056e-04 -1.640000000000000019e-04 2.220000000000000022e-04 -7.503929000000000293e+00 -1.312753499999999995e+01 1.834421100000000138e+01 -2.100000000000000087e-04 -7.600000000000000418e-05 -1.060000000000000016e-04 -7.504119000000000206e+00 -1.312725400000000064e+01 1.834413199999999833e+01 -7.502553999999999945e+00 -1.312558699999999945e+01 1.834372499999999917e+01 -7.500930999999999571e+00 -1.312327299999999930e+01 1.834089900000000029e+01 -7.502068000000000403e+00 -1.312447000000000052e+01 1.834263899999999836e+01 7.504622000000000348e+00 1.312693999999999939e+01 -1.834616099999999861e+01 7.503663999999999668e+00 1.312635700000000050e+01 -1.834501699999999857e+01 7.502133999999999858e+00 1.312562100000000065e+01 -1.834407600000000116e+01 -7.504076000000000413e+00 -1.312711000000000006e+01 1.834605300000000128e+01 -7.504000999999999699e+00 -1.312663599999999953e+01 1.834504599999999996e+01 -7.503331000000000195e+00 -1.312569700000000061e+01 1.834501600000000110e+01 -7.501121999999999623e+00 -1.312245799999999996e+01 1.834190600000000160e+01 -7.501272000000000162e+00 -1.312284200000000034e+01 1.834336300000000008e+01 -7.502270000000000216e+00 -1.312373999999999974e+01 1.834446000000000154e+01 3.919999999999999873e-04 -6.999999999999999387e-05 1.160000000000000007e-03 -6.399999999999999710e-05 3.399999999999999973e-05 4.400000000000000157e-04 -4.499999999999999877e-04 7.100000000000000462e-05 9.250000000000000409e-04 3.429999999999999889e-04 8.090000000000000403e-04 1.466999999999999988e-03 7.503930999999999685e+00 1.312644599999999961e+01 -1.834444900000000089e+01 2.300000000000000002e-05 6.430000000000000169e-04 8.819999999999999715e-04 7.503908000000000023e+00 1.312658700000000067e+01 -1.834429499999999891e+01 2.429999999999999977e-04 6.430000000000000169e-04 1.441000000000000007e-03 7.504233000000000153e+00 1.312747599999999970e+01 -1.834548900000000060e+01 -7.503709999999999880e+00 -1.312617799999999946e+01 1.834491799999999984e+01 1.640000000000000019e-04 -1.779999999999999898e-04 -3.980000000000000248e-04 -7.503271999999999942e+00 -1.312550500000000042e+01 1.834526899999999827e+01 1.699999999999999987e-05 -2.550000000000000183e-04 -8.009999999999999542e-04 -7.503865000000000229e+00 -1.312624100000000027e+01 1.834530000000000172e+01 1.450000000000000009e-04 -4.560000000000000251e-04 -4.180000000000000230e-04 7.501972000000000307e+00 1.312301000000000073e+01 -1.834443399999999968e+01 7.502769999999999939e+00 1.312436899999999973e+01 -1.834473900000000057e+01 7.501281999999999783e+00 1.312246500000000005e+01 -1.834226999999999919e+01 7.503754999999999953e+00 1.312635700000000050e+01 -1.834583399999999997e+01 7.503822999999999688e+00 1.312657500000000077e+01 -1.834538200000000074e+01 7.503218000000000387e+00 1.312687799999999960e+01 -1.834615300000000104e+01 -7.503922000000000203e+00 -1.312626700000000035e+01 1.834441899999999848e+01 6.600000000000000506e-05 2.930000000000000204e-04 -5.910000000000000539e-04 -7.503148999999999624e+00 -1.312606599999999979e+01 1.834431500000000170e+01 1.399999999999999877e-04 3.399999999999999973e-05 -1.201000000000000028e-03 -7.503826000000000107e+00 -1.312655200000000022e+01 1.834447099999999864e+01 -4.500000000000000283e-05 1.259999999999999998e-04 -4.609999999999999840e-04 7.501833999999999669e+00 1.312350600000000078e+01 -1.834294699999999878e+01 7.500852000000000075e+00 1.312248699999999957e+01 -1.834102999999999994e+01 7.501496000000000386e+00 1.312266400000000033e+01 -1.834185700000000097e+01 7.503483000000000125e+00 1.312576299999999918e+01 -1.834494700000000122e+01 7.503351000000000326e+00 1.312542000000000009e+01 -1.834507699999999986e+01 7.502569000000000266e+00 1.312499200000000066e+01 -1.834386399999999995e+01 -7.502957999999999572e+00 -1.312513000000000041e+01 1.834484199999999987e+01 -7.503110000000000390e+00 -1.312539499999999926e+01 1.834543599999999941e+01 -7.502847000000000044e+00 -1.312520899999999990e+01 1.834480299999999886e+01 7.500994000000000383e+00 1.312259500000000045e+01 -1.834162699999999901e+01 -4.300000000000000165e-05 -3.199999999999999855e-05 9.799999999999999684e-04 7.500746999999999609e+00 1.312221599999999988e+01 -1.834067200000000142e+01 3.110000000000000243e-04 -1.440000000000000036e-04 4.829999999999999767e-04 7.501687999999999690e+00 1.312286300000000061e+01 -1.834165499999999938e+01 -1.840000000000000001e-04 3.179999999999999776e-04 1.136000000000000074e-03 7.503913999999999973e+00 1.312656899999999993e+01 -1.834455300000000122e+01 7.503425000000000011e+00 1.312597399999999936e+01 -1.834414200000000150e+01 7.503237999999999630e+00 1.312593799999999966e+01 -1.834412000000000020e+01 1.930000000000000021e-04 3.730000000000000134e-04 -1.840000000000000001e-04 -7.501435999999999993e+00 -1.312247499999999967e+01 1.834257500000000007e+01 4.899999999999999842e-05 8.440000000000000236e-04 -3.119999999999999944e-04 1.469999999999999953e-04 4.220000000000000118e-04 2.519999999999999996e-04 -7.501797999999999966e+00 -1.312329100000000004e+01 1.834290100000000123e+01 -3.379999999999999758e-04 8.080000000000000160e-04 -2.120000000000000031e-04 3.080000000000000055e-04 5.199999999999999544e-04 -5.199999999999999680e-05 -7.503084000000000309e+00 -1.312410299999999985e+01 1.834364700000000070e+01 -5.899999999999999754e-05 1.206000000000000041e-03 -2.840000000000000185e-04 -7.504243999999999915e+00 -1.312622000000000000e+01 1.834583699999999951e+01 -7.502417000000000336e+00 -1.312513299999999994e+01 1.834452999999999889e+01 -7.503760999999999903e+00 -1.312635299999999994e+01 1.834566500000000033e+01 7.501711000000000240e+00 1.312443900000000063e+01 -1.834293500000000066e+01 7.502119999999999678e+00 1.312467799999999940e+01 -1.834415100000000010e+01 7.501454999999999984e+00 1.312369100000000088e+01 -1.834342799999999940e+01 3.409999999999999945e-04 3.040000000000000167e-04 -4.939999999999999730e-04 -7.501688999999999830e+00 -1.312281499999999923e+01 1.834260799999999847e+01 -2.099999999999999884e-05 -3.100000000000000135e-05 -1.469999999999999953e-03 -6.200000000000000270e-05 3.800000000000000209e-04 -5.599999999999999916e-05 -7.501221000000000139e+00 -1.312286300000000061e+01 1.834226599999999863e+01 -3.770000000000000022e-04 3.350000000000000113e-04 -1.007000000000000083e-03 7.899999999999999579e-05 3.400000000000000244e-04 -2.999999999999999737e-04 -7.501951000000000036e+00 -1.312272300000000058e+01 1.834257200000000054e+01 -1.399999999999999979e-05 -1.920000000000000049e-04 -1.387999999999999911e-03 -7.503909000000000162e+00 -1.312548499999999940e+01 1.834389699999999834e+01 -7.502443999999999669e+00 -1.312506100000000053e+01 1.834286300000000125e+01 -7.502143000000000228e+00 -1.312466599999999950e+01 1.834249499999999955e+01 7.501598999999999684e+00 1.312389800000000051e+01 -1.834327000000000041e+01 7.501536999999999900e+00 1.312431699999999957e+01 -1.834366999999999948e+01 7.502199000000000062e+00 1.312409199999999920e+01 -1.834352799999999917e+01 -7.501827999999999719e+00 -1.312286699999999939e+01 1.834321800000000025e+01 -7.501357999999999748e+00 -1.312308200000000014e+01 1.834240000000000137e+01 -7.501458999999999655e+00 -1.312281499999999923e+01 1.834169400000000039e+01 -7.502889999999999837e+00 -1.312583000000000055e+01 1.834416900000000084e+01 -7.503453999999999624e+00 -1.312666600000000017e+01 1.834459999999999980e+01 -7.503472000000000364e+00 -1.312643699999999924e+01 1.834487700000000032e+01 1.559999999999999972e-04 1.869999999999999917e-04 1.860000000000000108e-03 7.503049999999999997e+00 1.312520499999999934e+01 -1.834345400000000126e+01 -2.990000000000000036e-04 -1.579999999999999916e-04 9.790000000000000525e-04 -1.359999999999999989e-04 3.199999999999999855e-05 2.213000000000000123e-03 7.501595000000000013e+00 1.312410999999999994e+01 -1.834179100000000062e+01 2.500000000000000120e-05 6.600000000000000506e-05 9.759999999999999796e-04 5.479999999999999845e-04 -1.010000000000000020e-04 2.413999999999999913e-03 7.501891999999999783e+00 1.312384999999999913e+01 -1.834174099999999896e+01 2.220000000000000022e-04 -6.000000000000000152e-05 5.389999999999999826e-04