-1.412881262679999963e+03
-1.412881263859999990e+03
-1.412881265909999911e+03
-1.412881269230000044e+03
-1.412881273590000092e+03
