-1.412881222250000064e+03
-1.412881223549999959e+03
-1.412881225970000060e+03
-1.412881229809999923e+03
-1.412881235009999955e+03
