-1.503218047283622627e-01 1.761040272938784942e-02 2.009762911183599413e-02 6.132858633038460773e-03 -5.449557327107300503e-04 3.461257464643647912e-03 -7.510798553660416946e-03 1.805428883892094133e-02 1.995743820251355202e-02 6.808660946501566592e-04 4.490462109256660220e-04 3.297021362018927662e-03 1.705897450411500904e-03 5.336035823672274740e-03 2.620993814789666573e-03 -1.233125606297912763e-03 1.684045157452640886e-03 3.116925912939336098e-03 -1.002173106535008112e-03 -1.510939356633502016e-03 4.221980616383015986e-03 1.438868884494852191e-03 1.100044823392411220e-03 3.241042998752114400e-03 7.033126291390091097e-04 4.177355382383933502e-02 -3.143156364663538677e-02 6.887501358045367689e-05 -1.795654237095043037e-05 3.069003062085532297e-03 -4.612527998935374686e-05 -2.895635308071603032e-05 3.075998535136544813e-03 -8.812497218500773438e-05 4.358055763144467165e-08 3.068996413712164403e-03 -2.912200974911420854e-05 9.104252772821361337e-05 2.997997526131905913e-03 -1.312603566551264496e-05 4.604390462875723137e-05 3.095998815573779064e-03 1.428741959929652396e-04 3.004369741619770592e-05 3.090005394876346300e-03 -7.512630185420623421e-05 7.004405241666696318e-05 3.102995950608179732e-03 2.487330179950114853e-05 3.204410172104047225e-05 3.112000561439936825e-03 -3.612747341301263701e-05 3.004441886211951454e-05 3.130998105805883440e-03 2.687196425372855103e-05 -1.195544615106450933e-05 3.144001266673484511e-03 -4.812427450387045565e-05 -4.495670595799481533e-05 3.050998680562297567e-03 -4.412691428464609710e-05 1.604422663836503469e-05 3.116997978540777311e-03 -3.212374120337195088e-05 1.204311137477607860e-05 3.038998523974553202e-03 -1.212763239841084713e-05 3.504445678088916012e-05 3.134999012213774555e-03 -4.812544441322065135e-05 2.104371936921252572e-05 3.080997744802021088e-03 -4.312355637083086971e-05 4.004306327372962192e-05 3.034997679071532294e-03 1.778756023875729291e-04 6.043173790914012937e-06 3.055007160404995051e-03 -3.011938645085131784e-05 -4.295842138757083073e-05 2.930999385293642581e-03 8.921158483079913090e-04 -3.660411334680499810e-04 -2.851958485288160275e-03 -7.158655220787217164e-04 -2.380463253200254255e-04 -3.307025778747512551e-03 -4.185942034648861449e-05 -9.730491781437776433e-04 -3.470987912085257612e-03 -4.568988559816306982e-04 2.509652110492341533e-04 -2.479022165743115843e-03 -6.187674256737838395e-05 2.019571890500147424e-04 -3.023005385790813841e-03 1.151034138494443776e-04 4.979640400829689990e-04 -2.530002375276444414e-03 1.411310973807613741e-04 -2.380458195907158940e-04 -3.223990881055262096e-03 1.126133216847867002e-03 7.009529270183661705e-04 -3.257964083905201709e-03 -6.528605889996358554e-04 6.529521507706760467e-04 -3.411035845624463009e-03 3.897895476425561941e-03 -3.520967621453445408e-03 2.499208647459753938e-03 -1.529926863618559507e-03 -6.230244354070925590e-04 -1.808053468474854399e-03 2.405299833476803699e-03 1.828894221825438839e-03 -7.327927990670349279e-03 -1.584853656496630278e-03 -1.414050096605555615e-03 -3.621044491825401498e-03 4.200794413498832496e-04 1.708972477957821116e-03 -1.918007125257326648e-03 -6.358071303773827785e-04 -9.680669173338114081e-04 -4.755012169966032869e-03 -6.688030747533582480e-05 1.264958724059732148e-03 -2.915020660458031519e-03 -5.058356285389831739e-04 1.222943500579969827e-03 -4.013037940424906899e-03 1.585158070508733974e-03 1.186944046719123035e-03 -3.858952282868895536e-03 8.121822642356099929e-06 -1.804242622588139621e-05 -2.991999416252090049e-03 3.512348355509440587e-05 -2.904302865527857207e-05 -3.032998160795598482e-03 8.127352840862777939e-06 -2.804435440504267780e-05 -3.127999274348030202e-03 1.275533174040874859e-07 -3.204441902964699985e-05 -3.132999543399137346e-03 3.112748282004149070e-05 -1.804441494834847020e-05 -3.130998479543300322e-03 6.112599803915537032e-05 -4.204392803518059427e-05 -3.094996917684909431e-03 1.812417496495696286e-05 -1.860432988844237963e-04 -3.052996627122611314e-03 3.312784068663443218e-05 -2.904454411339012533e-05 -3.139998242137833837e-03 6.126165669573351285e-06 -3.604394168217834107e-05 -3.098999242394583423e-03 1.300187243922878747e-05 1.549993801602235705e-04 -4.300166814230017083e-05 1.520004359496437702e-04 -2.230003316598652067e-04 -1.499064877543311134e-05 -2.560051824292904369e-04 -2.739980698343274092e-04 1.219934600558931435e-04 3.100753568041117166e-05 2.997352834674536057e-06 -1.849987800149300806e-04 3.600276896228104905e-05 -5.200100645049947600e-05 -6.899779674151722058e-05 5.007405653758027338e-06 -1.110026126181375394e-04 -1.839982224929534460e-04 -1.780032583281224937e-04 -5.299874057550754464e-05 7.899350303652672041e-05 8.799858094121897913e-05 -4.399958685418366687e-05 3.400420722488447730e-05 2.189969582675550168e-04 -3.599912231567206172e-05 7.400942819708907611e-05 2.704971092846509152e-03 -1.965992590327922136e-03 6.721380227605568613e-04 1.095935077538915357e-02 5.908694475120378946e-04 -8.602562111253486687e-03 1.564313067173286149e-03 -8.231104502584981816e-04 -7.703924637127893861e-03 2.042180457197458401e-02 7.338054047221842860e-03 4.940727560200965270e-03 3.380002361022159223e-03 9.379967862666173210e-04 -3.987566222817410578e-05 2.026553772232067563e-02 7.642147161498385154e-03 1.149971689161086164e-02 -5.710165479247182206e-04 -1.786994278589169828e-03 3.720020837115176645e-04 -4.670624495440612862e-04 1.995022652952396953e-03 1.571952697263082933e-03 2.710226395721787953e-04 -3.691009101297555717e-03 -6.269366339415316774e-04 -2.900214250899826236e-05 2.000077412802654534e-05 5.299853549077955642e-05 -3.799938445444170446e-05 5.999817086318608126e-06 -1.500163244497925990e-05 -1.600122866409132202e-05 -8.999562137293305874e-06 2.999947603836538904e-05 7.000127636732378388e-05 -3.400050849575494944e-05 -3.199666746671680177e-05 -6.099901483849276963e-05 -4.200030667788448748e-05 -2.500188848261253167e-05 7.996953766098814910e-06 1.000105706967487929e-05 7.500018391945438025e-05 -4.099773051902014069e-05 8.999926649281975838e-05 -5.400294550340951639e-05 3.399965383216963714e-05 -2.599991319688529755e-05 8.001753123351324366e-06 7.998737697287081508e-06 1.040004615927933465e-04 3.299885124873159706e-05 3.289894370802388945e-02 -1.516001030446528612e-02 1.091554609161786340e-03 2.470308478171815997e-03 -1.712761635157199766e-03 1.694912489197616251e-02 3.292448118651498945e-02 -1.154475284689427811e-01 3.507897753657403944e-02 1.567813266513437900e-02 7.992291878841513778e-03 2.145352513359635380e-02 3.004201682434708750e-03 2.776276353917948598e-03 1.965808299041217275e-02 -2.709929298266120813e-03 6.431327430002876759e-03 2.294479848868783214e-02 5.251570930633961279e-04 1.929306850612522099e-05 2.070002113054749543e-02 6.012982662702053872e-03 8.882351918430276411e-03 2.515411894492038114e-02 -5.280004984481656387e-03 7.953356209827207660e-03 2.483267225578938628e-02 -1.986736322940314708e-05 9.230203026447961418e-05 2.130199790214728703e-02 7.914485996766973397e-05 4.929768523579074310e-05 2.100100254343518352e-02 -3.284402165791133738e-05 -1.047061401246350635e-04 2.072500016633200062e-02 2.915300887858293446e-05 5.529488882592103587e-05 2.080100042251196643e-02 -6.842399089481857876e-06 -6.070671342098998602e-05 2.068600060128879259e-02 2.813911129438482673e-05 -1.170028993390494822e-05 2.114100133138520354e-02 6.114439082193069512e-05 -1.337021872294670392e-04 2.100900440498314203e-02 -5.486240627788420996e-05 -2.569970036538420327e-05 2.117799815000885252e-02 -7.863884020708727981e-06 -4.069922676405828688e-05 2.121400027652184384e-02 6.013521928083832575e-05 -4.169896809619808156e-05 2.123600305969703186e-02 3.613576436811513382e-05 3.030088055490687100e-05 2.122400106160879027e-02 8.140790218332504409e-06 -1.037008839099077916e-04 2.109800182136239294e-02 -2.185548532959944929e-05 -2.770213642926747371e-05 2.100799952231049983e-02 1.091416773987163071e-04 -6.270126073035544570e-05 2.107700535289957350e-02 3.714314105795306489e-05 -6.570171475496285767e-05 2.104100246356505055e-02 -4.185691602742625542e-05 -3.470162454580096571e-05 2.104299880710528564e-02 -4.586558402805404258e-05 7.630142680099668499e-05 2.125799707029027430e-02 6.613911598928986688e-05 4.629969448418942007e-05 2.114200205646633857e-02 1.272928441858053395e-03 -1.463242922240593803e-04 -2.280294611192628176e-02 6.529000915895090754e-04 5.176862452235309921e-04 -2.209398077354799914e-02 -1.701093171838858773e-03 -1.073314690291018048e-03 -2.229005407342765296e-02 1.908279902370992899e-04 -1.126288737680374279e-03 -2.035497627995465006e-02 7.938473078610270130e-04 5.057045092450734598e-04 -2.079797486297959089e-02 -1.481368602288889006e-04 7.536998025290316547e-04 -2.118201673774971691e-02 6.299289346095670152e-04 -8.693241573073238375e-04 -2.282896204488639100e-02 -1.059107987938920879e-03 7.869027953832520681e-05 -2.190404426378357236e-02 -1.683033618107346026e-04 4.918758924997944197e-03 -1.701307660642707720e-02 -1.534131527558760776e-03 1.217699158023892838e-03 -2.130407975521820402e-02 8.089473095825188190e-05 2.042688975568648403e-03 -2.193302568711379477e-02 4.838671348496580453e-04 -3.313023793728067223e-04 -2.130097561918782925e-02 8.838975031955745342e-04 -1.278313524311458071e-03 -2.206494590379516618e-02 -3.822144769061430725e-04 -4.972733315128791132e-04 -1.930000853179628800e-02 3.310847323579937593e-03 -1.550298028460796954e-03 -2.083784321907845849e-02 -1.695058060452330796e-03 2.386734380640213469e-04 -2.312707242955014050e-02 1.266877566620978239e-03 -2.173065936303115292e-04 -2.155494535079032284e-02 -1.795204022790661833e-03 -4.527574127812766233e-05 -1.954807247847745871e-02 4.485318689631108912e-05 -4.729710179333826929e-05 -2.095299752244979274e-02 -5.414423267079869961e-05 7.570211086536419933e-05 -2.101400329762225655e-02 -9.214871198164537914e-05 -2.829632816839825640e-05 -2.090600337062759398e-02 -5.214269930991587940e-05 2.137016130626221853e-04 -2.104900517267937338e-02 -2.814629615943571494e-05 4.070279940076070642e-05 -2.096400174270488317e-02 -3.814586151766955602e-05 7.570266544924022763e-05 -2.097400264612582152e-02 -1.371456531548992548e-04 2.970265790372481678e-05 -2.098000602530738362e-02 -8.514654043719997051e-05 4.070292909831377135e-05 -2.095800406379897535e-02 -5.146571037936664131e-06 5.370288063510611265e-05 -2.095700099044274164e-02
-1.502028042045750189e-01 1.760340245190067029e-02 2.008463405687370765e-02 6.131858351127702882e-03 -5.409556326835695704e-04 3.468257367205236034e-03 -7.512799236510154903e-03 1.806628908150824386e-02 1.997443795092288671e-02 6.908658103795560284e-04 4.500463023401711352e-04 3.304021755043168480e-03 1.706897080788817231e-03 5.332035950489841074e-03 2.629993912213205321e-03 -1.243125766822258341e-03 1.687045221993481404e-03 3.120925463193816290e-03 -1.001173231049078041e-03 -1.513939314882809667e-03 4.224980699634368377e-03 1.431868392716283741e-03 1.096044999007331731e-03 3.253042770406055183e-03 7.073123362540765374e-04 4.176355391995293515e-02 -3.142456334198085594e-02 6.687452728275280339e-05 -1.495637067171619482e-05 3.081002938099383984e-03 -3.612588924310094519e-05 -2.695614824394876067e-05 3.090998913975584635e-03 -9.512549528153419083e-05 8.043770349137765546e-06 3.081996015232014042e-03 -3.712241773445260767e-05 9.004267577023731086e-05 3.007997214533564626e-03 -1.312665274670071175e-05 3.804411729649416978e-05 3.110998928981943256e-03 1.508737394377815302e-04 1.904384710908638232e-05 3.101005876588327961e-03 -6.912687586881022066e-05 6.504424620832916512e-05 3.116996265809089499e-03 1.787261660318813954e-05 4.104434822362743913e-05 3.129000148778304184e-03 -3.412816253465767818e-05 3.404465831824512637e-05 3.147998130520728716e-03 2.387033385546932196e-05 -1.395487669005988855e-05 3.184001172829274435e-03 -4.712586340103378077e-05 -4.595615380687099219e-05 3.089998735424657854e-03 -4.212862377801188281e-05 1.704482053967716718e-05 3.158998045765672603e-03 -3.612549219617483949e-05 1.204372415196131932e-05 3.081998361051176225e-03 -9.129174307805070784e-06 4.204499318741881518e-05 3.172999035096658784e-03 -4.412723534992526423e-05 2.204434006012307055e-05 3.124997893466759796e-03 -4.512514526550600344e-05 3.904361777384190757e-05 3.073997611771339070e-03 1.798740119224332074e-04 3.043725159243300970e-06 3.094007284343733202e-03 -3.312093384028355180e-05 -4.295788028235856453e-05 2.968999263095764302e-03 8.961173142549140689e-04 -3.660416470006677236e-04 -2.887958322371290184e-03 -7.128644218349561908e-04 -2.370467104695894711e-04 -3.334025670737623438e-03 -5.185803504606074324e-05 -9.720496523589591733e-04 -3.504988333439925524e-03 -4.598974260483012035e-04 2.569647171747800542e-04 -2.514022372939714572e-03 -6.187548022133803650e-05 2.019567495383584792e-04 -3.054005385761995959e-03 1.151045493315237789e-04 4.919636431053037032e-04 -2.558002290183834619e-03 1.421324388169319022e-04 -2.410462882406565720e-04 -3.256990797770443861e-03 1.130134606054550815e-03 7.069524418407343051e-04 -3.291964006056771492e-03 -6.558590400380802290e-04 6.549516143632389637e-04 -3.449035996107218446e-03 3.903895680024785722e-03 -3.520967697040399639e-03 2.494208891789508921e-03 -1.529926215219413500e-03 -6.270246622514150624e-04 -1.824053411748927231e-03 2.408300732467089957e-03 1.832893907564549490e-03 -7.349927925198397952e-03 -1.579853163932829754e-03 -1.409050270654584915e-03 -3.633044359098807751e-03 4.060798971264698454e-04 1.718972332963010280e-03 -1.929007837116651332e-03 -6.278063974088977407e-04 -9.680671787980971773e-04 -4.773011844182491886e-03 -6.287962070938763511e-05 1.257958479905932044e-03 -2.932020398314479515e-03 -5.058352691035844116e-04 1.213943372980718889e-03 -4.022037812816669881e-03 1.584158887277083844e-03 1.189943763945909517e-03 -3.878952366104445118e-03 1.812219617378358795e-05 -9.042561656908526977e-06 -3.000999136635084177e-03 3.412385552849831708e-05 -2.204315547314636631e-05 -3.041998300752427487e-03 -8.722798805390314002e-07 -2.704447495833635679e-05 -3.136999655005087186e-03 -1.871966650165333602e-06 -4.304458759609012158e-05 -3.144999468874286070e-03 4.512755249650759993e-05 -3.304445426437321230e-05 -3.132997696783073292e-03 4.712643657712525667e-05 -5.404407302777366752e-05 -3.105997317633437445e-03 2.512479360748620007e-05 -1.760435170333354111e-04 -3.067996483840344010e-03 3.012801219179103059e-05 -1.804459847669203436e-05 -3.143998520252066966e-03 2.126608900690154600e-06 -4.204409450533784016e-05 -3.109999320201181118e-03 2.799861475958687331e-05 1.550005026389102841e-04 3.699894259609870885e-05 1.529970584698138556e-04 -2.199991556861486438e-04 6.800934933497093605e-05 -2.580082615400027088e-04 -2.539969907579037092e-04 1.979930949882720899e-04 2.200385124791888019e-05 2.999865005829608155e-05 -9.399952938679719504e-05 3.499776578480345238e-05 -4.499926179937932893e-05 5.400206317894679065e-05 1.000268673361062945e-05 -1.050009719094610649e-04 -6.799810406311208573e-05 -1.710064087265054358e-04 -7.199765436432224459e-05 1.559940573884113356e-04 6.999661225150485074e-05 -6.199889222426082096e-05 8.200372940468605867e-05 2.189934805411108184e-04 -5.699791720094914610e-05 1.590097258511060220e-04 2.685977512675648445e-03 -1.931994801368294885e-03 5.151367671663747202e-04 1.087735409108382158e-02 6.128683633140803461e-04 -8.683565762198778779e-03 1.555315077389807493e-03 -8.041111379254211244e-04 -7.752925272947510001e-03 2.027681327300888056e-02 7.269051112537238540e-03 4.725722634143096450e-03 3.361009719756357251e-03 9.229942349640956039e-04 -2.208762230896360156e-04 2.010354833489783055e-02 7.570143573768634698e-03 1.123771131587550549e-02 -5.660108352576612503e-04 -1.771996267397013677e-03 2.320020747794650424e-04 -4.520576648702915928e-04 1.969020968230222705e-03 1.453953676807392265e-03 2.610272997784243536e-04 -3.668010709738584070e-03 -7.409373671326284407e-04 -3.900113701687976360e-05 4.000427514717005261e-06 2.799835514972382706e-05 -1.799955989156554260e-05 -1.000014186081007351e-05 -1.100059118745984453e-05 -2.499924665621544381e-05 -2.600024980058690481e-05 -1.900064938176539942e-05 6.200103518321287469e-05 -3.000041716541676758e-05 -2.599704995015719196e-05 -6.099920982338446666e-05 -3.100023579001659561e-05 -2.000204444265866568e-05 1.699666401131321355e-05 4.001149267881887294e-06 8.200063546718804020e-05 -3.699886443727015819e-05 9.799966033829879289e-05 -2.600289606814154114e-05 4.199966871343069412e-05 -6.999919462769962448e-06 8.001809512654380359e-06 -2.000675747615529072e-06 1.250002709315027941e-04 1.899814632020199761e-05 3.273094462290241508e-02 -1.498001044231819096e-02 1.072545216079036877e-03 2.461317845589593330e-03 -1.606764860658263299e-03 1.672112302285752583e-02 3.266749160612791164e-02 -1.147265316988119316e-01 3.483695684937279657e-02 1.557313943109953427e-02 7.896289579196165767e-03 2.128552221912844919e-02 3.018209058330191367e-03 2.679273748429230294e-03 1.947508493591726397e-02 -2.720918570728828034e-03 6.298323667335676071e-03 2.267879992664828537e-02 5.401621855066770323e-04 2.229128453646004069e-05 2.057502169894316960e-02 5.956989510093227413e-03 8.838349566235080210e-03 2.498511728853141517e-02 -5.245999600006055578e-03 7.861354283390034614e-03 2.469867494477712491e-02 -5.386053622938571299e-05 2.229966084598934155e-05 2.113299751023888992e-02 7.515098687777142154e-05 2.129554752349824870e-05 2.085000277766952542e-02 -3.838117185143601432e-06 -1.567082327844044145e-04 2.057900208461610481e-02 1.915722426490094074e-05 3.029342216768510395e-05 2.069700036984422134e-02 1.716222663631192691e-05 -2.970833430689893696e-05 2.057300113918359569e-02 5.144429313440608075e-06 1.929788495848426503e-05 2.101099995541580792e-02 -8.498384959858669265e-07 -9.670413775658160142e-05 2.086800135584419846e-02 -7.856797002418454420e-06 1.329832047190005683e-05 2.104099951108343719e-02 -3.857376500378060025e-06 1.298515830260256773e-06 2.105499984408698913e-02 3.514101106373678770e-05 -2.970096176944550420e-05 2.109400187167459820e-02 3.914120371957174660e-05 8.298978383557583698e-06 2.109000149580670877e-02 2.914644334551530028e-05 -1.127028710654752491e-04 2.095900280422935066e-02 -8.848096846149386787e-06 -4.704712791496908867e-06 2.082699972576126241e-02 7.714777695693177356e-05 -2.170334817012083882e-05 2.092800346868254821e-02 5.414882004637853048e-05 -4.170369878187246416e-05 2.090200281568241336e-02 3.149618050434934825e-06 -6.270394240285873870e-05 2.088200103667062907e-02 -3.585807027028310354e-05 5.129879608141320861e-05 2.107299783211484881e-02 3.614554128758529737e-05 3.529747788351564141e-05 2.098400099094307678e-02 1.267916758140392487e-03 -9.032020510965944340e-05 -2.251494710975301614e-02 6.928855362192400894e-04 5.466912895515012392e-04 -2.173597955620189259e-02 -1.716107932334857674e-03 -1.046309532009080927e-03 -2.192705506737747598e-02 1.958162970582998303e-04 -1.186284686739832658e-03 -2.006897522595044864e-02 7.918354557225407153e-04 4.507086223772657947e-04 -2.050797416491388636e-02 -1.601493208459422361e-04 6.497041219852602977e-04 -2.087801575219512887e-02 6.509176353551105257e-04 -8.423202323258540021e-04 -2.255096157280656391e-02 -1.053120768777665497e-03 1.376947408399397960e-04 -2.158904485623933459e-02 -2.083125623366807407e-04 4.921762160499240299e-03 -1.678707827800450178e-02 -1.515141681976560090e-03 1.146702659247373583e-03 -2.105607797513136398e-02 4.988487808284617893e-05 1.992692416695251989e-03 -2.169202624079603556e-02 5.018584863451766879e-04 -3.512993877721042610e-04 -2.108897460285431152e-02 8.378886911022223908e-04 -1.247310411715166472e-03 -2.184794821666670439e-02 -3.352237080386316842e-04 -4.812701499557640113e-04 -1.907300684497151635e-02 3.295837650863201254e-03 -1.474294628230424621e-03 -2.059884490762342243e-02 -1.730069991629424719e-03 2.386776195629282155e-04 -2.283407385505230314e-02 1.254868258797185200e-03 -1.953033375214373367e-04 -2.132594615156421097e-02 -1.734214242988524248e-03 -4.427223041435781280e-05 -1.929707000891663776e-02 1.484945705895527164e-05 -2.629577394839722015e-05 -2.086099904189388232e-02 -5.014784194098105774e-05 9.470336955525149010e-05 -2.092500340419908844e-02 -6.715185534279612448e-05 -3.829525605205107456e-05 -2.082900221090025830e-02 -2.714807604867935567e-05 2.117034649569078436e-04 -2.091700412642527943e-02 -2.615273708099637943e-05 8.370505209989624140e-05 -2.080500227105481700e-02 -5.315105104911887752e-05 1.047044919490655422e-04 -2.084600366821271616e-02 -1.391501160155797869e-04 -1.295795147463126084e-06 -2.087100566733974399e-02 -5.315146065820208798e-05 -2.295394617784738685e-06 -2.083800215119946050e-02 -2.915188666729018370e-05 2.570474254323379252e-05 -2.082700157088663781e-02