9.308430189999999271e+00 0.000000000000000000e+00 0.000000000000000000e+00 0.000000000000000000e+00 1.613385610109726898e+01 -1.318996689125360815e-17 0.000000000000000000e+00 8.060302150919582687e-01 2.163874430332396059e+01
9.308430189999999271e+00 0.000000000000000000e+00 0.000000000000000000e+00 0.000000000000000000e+00 1.613385610109726898e+01 -1.318996689125360815e-17 0.000000000000000000e+00 8.060302150919582687e-01 2.163874430332396059e+01
9.308430189999999271e+00 0.000000000000000000e+00 0.000000000000000000e+00 0.000000000000000000e+00 1.613385610109726898e+01 -1.318996689125360815e-17 0.000000000000000000e+00 8.060302150919582687e-01 2.163874430332396059e+01
9.308430189999999271e+00 0.000000000000000000e+00 0.000000000000000000e+00 0.000000000000000000e+00 1.613385610109726898e+01 -1.318996689125360815e-17 0.000000000000000000e+00 8.060302150919582687e-01 2.163874430332396059e+01
9.308430189999999271e+00 0.000000000000000000e+00 0.000000000000000000e+00 0.000000000000000000e+00 1.613385610109726898e+01 -1.318996689125360815e-17 0.000000000000000000e+00 8.060302150919582687e-01 2.163874430332396059e+01
