1.299999999999999886e-04 1.627787240011507564e+01 4.871675512231083083e+00 1.551530000000000076e+00 2.832995207822572414e+00 4.871692032698121011e+00 1.299999999999999886e-04 3.708799908887001617e+00 2.313038199606694878e+00 1.551530000000000076e+00 1.019826841278260066e+00 2.313051422322558004e+00 3.102939999999999809e+00 1.627787240011507564e+01 4.871675512231083083e+00 4.654340000000000366e+00 2.832995207822572414e+00 4.871692032698121011e+00 3.102939999999999809e+00 3.708799908887001617e+00 2.313038199606694878e+00 4.654340000000000366e+00 1.019826841278260066e+00 2.313051422322558004e+00 6.205750000000000099e+00 1.627787240011507564e+01 4.871675512231083083e+00 7.757150000000000212e+00 2.832995207822572414e+00 4.871692032698121011e+00 6.205750000000000099e+00 3.708799908887001617e+00 2.313038199606694878e+00 7.757150000000000212e+00 1.019826841278260066e+00 2.313051422322558004e+00 1.299999999999999886e-04 5.521968275431314410e+00 4.871678809982257441e+00 1.551530000000000076e+00 8.210952452817183556e+00 4.871695194239427096e+00 1.299999999999999886e-04 9.086747160811990298e+00 2.313041733383836451e+00 1.551530000000000076e+00 6.397774093203248746e+00 2.313054956099699577e+00 3.102939999999999809e+00 5.521968275431314410e+00 4.871678809982257441e+00 4.654340000000000366e+00 8.210952452817183556e+00 4.871695194239427096e+00 3.102939999999999809e+00 9.086747160811990298e+00 2.313041733383836451e+00 4.654340000000000366e+00 6.397774093203248746e+00 2.313054956099699577e+00 6.205750000000000099e+00 5.521968275431314410e+00 4.871678809982257441e+00 7.757150000000000212e+00 8.210952452817183556e+00 4.871695194239427096e+00 6.205750000000000099e+00 9.086747160811990298e+00 2.313041733383836451e+00 7.757150000000000212e+00 6.397774093203248746e+00 2.313054956099699577e+00 1.299999999999999886e-04 1.089992552042592244e+01 4.871681971523564414e+00 1.551530000000000076e+00 1.358889933250633675e+01 4.871688734946946653e+00 1.299999999999999886e-04 1.446470440580660011e+01 2.313044894925143424e+00 1.551530000000000076e+00 1.177573133819785944e+01 2.313058117641006106e+00 3.102939999999999809e+00 1.089992552042592244e+01 4.871681971523564414e+00 4.654340000000000366e+00 1.358889933250633675e+01 4.871688734946946653e+00 3.102939999999999809e+00 1.446470440580660011e+01 2.313044894925143424e+00 4.654340000000000366e+00 1.177573133819785944e+01 2.313058117641006106e+00 6.205750000000000099e+00 1.089992552042592244e+01 4.871681971523564414e+00 7.757150000000000212e+00 1.358889933250633675e+01 4.871688734946946653e+00 6.205750000000000099e+00 1.446470440580660011e+01 2.313044894925143424e+00 7.757150000000000212e+00 1.177573133819785944e+01 2.313058117641006106e+00 1.299999999999999886e-04 1.654654924804047766e+01 1.208459322129922953e+01 1.551530000000000076e+00 3.101672055747972667e+00 1.208460974176626657e+01 1.299999999999999886e-04 3.977476756812401870e+00 9.525955908674841766e+00 1.551530000000000076e+00 1.288503689203660318e+00 9.525969131390704447e+00 3.102939999999999809e+00 1.654654924804047766e+01 1.208459322129922953e+01 4.654340000000000366e+00 3.101672055747972667e+00 1.208460974176626657e+01 3.102939999999999809e+00 3.977476756812401870e+00 9.525955908674841766e+00 4.654340000000000366e+00 1.288503689203660318e+00 9.525969131390704447e+00 6.205750000000000099e+00 1.654654924804047766e+01 1.208459322129922953e+01 7.757150000000000212e+00 3.101672055747972667e+00 1.208460974176626657e+01 6.205750000000000099e+00 3.977476756812401870e+00 9.525955908674841766e+00 7.757150000000000212e+00 1.288503689203660318e+00 9.525969131390704447e+00 1.299999999999999886e-04 5.790645123356714663e+00 1.208459651905040388e+01 1.551530000000000076e+00 8.479628928506748764e+00 1.208460291023795108e+01 1.299999999999999886e-04 9.355424008737390551e+00 9.525959442451982895e+00 1.551530000000000076e+00 6.666450941128648999e+00 9.525972665167845577e+00 3.102939999999999809e+00 5.790645123356714663e+00 1.208459651905040388e+01 4.654340000000000366e+00 8.479628928506748764e+00 1.208460291023795108e+01 3.102939999999999809e+00 9.355424008737390551e+00 9.525959442451982895e+00 4.654340000000000366e+00 6.666450941128648999e+00 9.525972665167845577e+00 6.205750000000000099e+00 5.790645123356714663e+00 1.208459651905040388e+01 7.757150000000000212e+00 8.479628928506748764e+00 1.208460291023795108e+01 6.205750000000000099e+00 9.355424008737390551e+00 9.525959442451982895e+00 7.757150000000000212e+00 6.666450941128648999e+00 9.525972665167845577e+00 1.299999999999999886e-04 1.116860236835132270e+01 1.208459968059171175e+01 1.551530000000000076e+00 1.385757618043173700e+01 1.208460644401509221e+01 1.299999999999999886e-04 1.473338088149616532e+01 9.525952610923667407e+00 1.551530000000000076e+00 1.204440781388742465e+01 9.525965833639530089e+00 3.102939999999999809e+00 1.116860236835132270e+01 1.208459968059171175e+01 4.654340000000000366e+00 1.385757618043173700e+01 1.208460644401509221e+01 3.102939999999999809e+00 1.473338088149616532e+01 9.525952610923667407e+00 4.654340000000000366e+00 1.204440781388742465e+01 9.525965833639530089e+00 6.205750000000000099e+00 1.116860236835132270e+01 1.208459968059171175e+01 7.757150000000000212e+00 1.385757618043173700e+01 1.208460644401509221e+01 6.205750000000000099e+00 1.473338088149616532e+01 9.525952610923667407e+00 7.757150000000000212e+00 1.204440781388742465e+01 9.525965833639530089e+00 1.299999999999999886e-04 1.681522609596587614e+01 1.929751093036737686e+01 1.551530000000000076e+00 3.370348903673372920e+00 1.929752745083441212e+01 1.299999999999999886e-04 4.246153604737801679e+00 1.673887361774298554e+01 1.551530000000000076e+00 1.557180537129060571e+00 1.673888684045885000e+01 3.102939999999999809e+00 1.681522609596587614e+01 1.929751093036737686e+01 4.654340000000000366e+00 3.370348903673372920e+00 1.929752745083441212e+01 3.102939999999999809e+00 4.246153604737801679e+00 1.673887361774298554e+01 4.654340000000000366e+00 1.557180537129060571e+00 1.673888684045885000e+01 6.205750000000000099e+00 1.681522609596587614e+01 1.929751093036737686e+01 7.757150000000000212e+00 3.370348903673372920e+00 1.929752745083441212e+01 6.205750000000000099e+00 4.246153604737801679e+00 1.673887361774298554e+01 7.757150000000000212e+00 1.557180537129060571e+00 1.673888684045885000e+01 1.299999999999999886e-04 6.059321971282114916e+00 1.929751422811854766e+01 1.551530000000000076e+00 8.748305776432149017e+00 1.929752061930609841e+01 1.299999999999999886e-04 9.624100856662790804e+00 1.673887715152012845e+01 1.551530000000000076e+00 6.935127416818214208e+00 1.673888038116637134e+01 3.102939999999999809e+00 6.059321971282114916e+00 1.929751422811854766e+01 4.654340000000000366e+00 8.748305776432149017e+00 1.929752061930609841e+01 3.102939999999999809e+00 9.624100856662790804e+00 1.673887715152012845e+01 4.654340000000000366e+00 6.935127416818214208e+00 1.673888038116637134e+01 6.205750000000000099e+00 6.059321971282114916e+00 1.929751422811854766e+01 7.757150000000000212e+00 8.748305776432149017e+00 1.929752061930609841e+01 6.205750000000000099e+00 9.624100856662790804e+00 1.673887715152012845e+01 7.757150000000000212e+00 6.935127416818214208e+00 1.673888038116637134e+01 1.299999999999999886e-04 1.143727884404088790e+01 1.929750739659023395e+01 1.551530000000000076e+00 1.412625302835713725e+01 1.929752415308323776e+01 1.299999999999999886e-04 1.500205772942156557e+01 1.673887031999181119e+01 1.551530000000000076e+00 1.231308466181282490e+01 1.673888354270767564e+01 3.102939999999999809e+00 1.143727884404088790e+01 1.929750739659023395e+01 4.654340000000000366e+00 1.412625302835713725e+01 1.929752415308323776e+01 3.102939999999999809e+00 1.500205772942156557e+01 1.673887031999181119e+01 4.654340000000000366e+00 1.231308466181282490e+01 1.673888354270767564e+01 6.205750000000000099e+00 1.143727884404088790e+01 1.929750739659023395e+01 7.757150000000000212e+00 1.412625302835713725e+01 1.929752415308323776e+01 6.205750000000000099e+00 1.500205772942156557e+01 1.673887031999181119e+01 7.757150000000000212e+00 1.231308466181282490e+01 1.673888354270767564e+01 1.299999999999999886e-04 1.926415276613557159e+00 3.592351555253176620e+00 1.299999999999999886e-04 3.733825747385408622e+00 5.920656864087109561e+00 1.551530000000000076e+00 2.808006363715974452e+00 1.263991934717384025e+00 1.200000000000000030e-04 1.190225585659401841e-01 1.263985543529836830e+00 1.551539999999999919e+00 4.615408330361542966e+00 3.592337588065642962e+00 1.551530000000000076e+00 1.044852679776667070e+00 5.920670086802973131e+00 3.102939999999999809e+00 1.926415276613557159e+00 3.592351555253176620e+00 3.102939999999999809e+00 3.733825747385408622e+00 5.920656864087109561e+00 4.654340000000000366e+00 2.808006363715974452e+00 1.263991934717384025e+00 3.102930000000000188e+00 1.190225585659401841e-01 1.263985543529836830e+00 4.654349999999999987e+00 4.615408330361542966e+00 3.592337588065642962e+00 4.654340000000000366e+00 1.044852679776667070e+00 5.920670086802973131e+00 6.205750000000000099e+00 1.926415276613557159e+00 3.592351555253176620e+00 6.205750000000000099e+00 3.733825747385408622e+00 5.920656864087109561e+00 7.757150000000000212e+00 2.808006363715974452e+00 1.263991934717384025e+00 6.205739999999999590e+00 1.190225585659401841e-01 1.263985543529836830e+00 7.757159999999999833e+00 4.615408330361542966e+00 3.592337588065642962e+00 7.757150000000000212e+00 1.044852679776667070e+00 5.920670086802973131e+00 1.299999999999999886e-04 7.304372521608168078e+00 3.592354716794483149e+00 1.299999999999999886e-04 9.111782992380019763e+00 5.920660025628415646e+00 1.551530000000000076e+00 8.185953615640961800e+00 1.263995468494526042e+00 1.200000000000000030e-04 5.496979431324716003e+00 1.263978712001520899e+00 1.551539999999999919e+00 9.993355582286531202e+00 3.592341121842784979e+00 1.551530000000000076e+00 6.422799931701655751e+00 5.920673620580114260e+00 3.102939999999999809e+00 7.304372521608168078e+00 3.592354716794483149e+00 3.102939999999999809e+00 9.111782992380019763e+00 5.920660025628415646e+00 4.654340000000000366e+00 8.185953615640961800e+00 1.263995468494526042e+00 3.102930000000000188e+00 5.496979431324716003e+00 1.263978712001520899e+00 4.654349999999999987e+00 9.993355582286531202e+00 3.592341121842784979e+00 4.654340000000000366e+00 6.422799931701655751e+00 5.920673620580114260e+00 6.205750000000000099e+00 7.304372521608168078e+00 3.592354716794483149e+00 6.205750000000000099e+00 9.111782992380019763e+00 5.920660025628415646e+00 7.757150000000000212e+00 8.185953615640961800e+00 1.263995468494526042e+00 6.205739999999999590e+00 5.496979431324716003e+00 1.263978712001520899e+00 7.757159999999999833e+00 9.993355582286531202e+00 3.592341121842784979e+00 7.757150000000000212e+00 6.422799931701655751e+00 5.920673620580114260e+00 1.299999999999999886e-04 1.268231977353315720e+01 3.592358250571625167e+00 1.299999999999999886e-04 1.448973024430500800e+01 5.920663559405557663e+00 1.551530000000000076e+00 1.356391086063557339e+01 1.263998630035832571e+00 1.200000000000000030e-04 1.087492668324970424e+01 1.263982245778662916e+00 1.551539999999999919e+00 1.537131282728114456e+01 3.592344283384091064e+00 1.551530000000000076e+00 1.180075680446043229e+01 5.920666789051798773e+00 3.102939999999999809e+00 1.268231977353315720e+01 3.592358250571625167e+00 3.102939999999999809e+00 1.448973024430500800e+01 5.920663559405557663e+00 4.654340000000000366e+00 1.356391086063557339e+01 1.263998630035832571e+00 3.102930000000000188e+00 1.087492668324970424e+01 1.263982245778662916e+00 4.654349999999999987e+00 1.537131282728114456e+01 3.592344283384091064e+00 4.654340000000000366e+00 1.180075680446043229e+01 5.920666789051798773e+00 6.205750000000000099e+00 1.268231977353315720e+01 3.592358250571625167e+00 6.205750000000000099e+00 1.448973024430500800e+01 5.920663559405557663e+00 7.757150000000000212e+00 1.356391086063557339e+01 1.263998630035832571e+00 6.205739999999999590e+00 1.087492668324970424e+01 1.263982245778662916e+00 7.757159999999999833e+00 1.537131282728114456e+01 3.592344283384091064e+00 7.757150000000000212e+00 1.180075680446043229e+01 5.920666789051798773e+00 1.299999999999999886e-04 2.195092124538957634e+00 1.080526926432132306e+01 1.299999999999999886e-04 4.002502595310809319e+00 1.313357457315525600e+01 1.551530000000000076e+00 3.076683211641374704e+00 8.476909643785528914e+00 1.200000000000000030e-04 3.876994064913404370e-01 8.476903252597983496e+00 1.551539999999999919e+00 4.884085178286943218e+00 1.080525529713379029e+01 1.551530000000000076e+00 1.313529527702067323e+00 1.313358779587111869e+01 3.102939999999999809e+00 2.195092124538957634e+00 1.080526926432132306e+01 3.102939999999999809e+00 4.002502595310809319e+00 1.313357457315525600e+01 4.654340000000000366e+00 3.076683211641374704e+00 8.476909643785528914e+00 3.102930000000000188e+00 3.876994064913404370e-01 8.476903252597983496e+00 4.654349999999999987e+00 4.884085178286943218e+00 1.080525529713379029e+01 4.654340000000000366e+00 1.313529527702067323e+00 1.313358779587111869e+01 6.205750000000000099e+00 2.195092124538957634e+00 1.080526926432132306e+01 6.205750000000000099e+00 4.002502595310809319e+00 1.313357457315525600e+01 7.757150000000000212e+00 3.076683211641374704e+00 8.476909643785528914e+00 6.205739999999999590e+00 3.876994064913404370e-01 8.476903252597983496e+00 7.757159999999999833e+00 4.884085178286943218e+00 1.080525529713379029e+01 7.757150000000000212e+00 1.313529527702067323e+00 1.313358779587111869e+01 1.299999999999999886e-04 7.573049369533568331e+00 1.080527242586262915e+01 1.299999999999999886e-04 9.380459840305420016e+00 1.313357773469656209e+01 1.551530000000000076e+00 8.454630463566362053e+00 8.476913177562671819e+00 1.200000000000000030e-04 5.765656279250116256e+00 8.476896421069666232e+00 1.551539999999999919e+00 1.026203243021193146e+01 1.080525883091093142e+01 1.551530000000000076e+00 6.691476407391220960e+00 1.313358133657863824e+01 3.102939999999999809e+00 7.573049369533568331e+00 1.080527242586262915e+01 3.102939999999999809e+00 9.380459840305420016e+00 1.313357773469656209e+01 4.654340000000000366e+00 8.454630463566362053e+00 8.476913177562671819e+00 3.102930000000000188e+00 5.765656279250116256e+00 8.476896421069666232e+00 4.654349999999999987e+00 1.026203243021193146e+01 1.080525883091093142e+01 4.654340000000000366e+00 6.691476407391220960e+00 1.313358133657863824e+01 6.205750000000000099e+00 7.573049369533568331e+00 1.080527242586262915e+01 6.205750000000000099e+00 9.380459840305420016e+00 1.313357773469656209e+01 7.757150000000000212e+00 8.454630463566362053e+00 8.476913177562671819e+00 6.205739999999999590e+00 5.765656279250116256e+00 8.476896421069666232e+00 7.757159999999999833e+00 1.026203243021193146e+01 1.080525883091093142e+01 7.757150000000000212e+00 6.691476407391220960e+00 1.313358133657863824e+01 1.299999999999999886e-04 1.295099624922272064e+01 1.080526596657014693e+01 1.299999999999999886e-04 1.475840671999457321e+01 1.313357127540408165e+01 1.551530000000000076e+00 1.383258733632513859e+01 8.476906346034356332e+00 1.200000000000000030e-04 1.114360353117510449e+01 8.476899954846809138e+00 1.551539999999999919e+00 1.563998930297070977e+01 1.080525199938261416e+01 1.551530000000000076e+00 1.206943365238583254e+01 1.313358449811994433e+01 3.102939999999999809e+00 1.295099624922272064e+01 1.080526596657014693e+01 3.102939999999999809e+00 1.475840671999457321e+01 1.313357127540408165e+01 4.654340000000000366e+00 1.383258733632513859e+01 8.476906346034356332e+00 3.102930000000000188e+00 1.114360353117510449e+01 8.476899954846809138e+00 4.654349999999999987e+00 1.563998930297070977e+01 1.080525199938261416e+01 4.654340000000000366e+00 1.206943365238583254e+01 1.313358449811994433e+01 6.205750000000000099e+00 1.295099624922272064e+01 1.080526596657014693e+01 6.205750000000000099e+00 1.475840671999457321e+01 1.313357127540408165e+01 7.757150000000000212e+00 1.383258733632513859e+01 8.476906346034356332e+00 6.205739999999999590e+00 1.114360353117510449e+01 8.476899954846809138e+00 7.757159999999999833e+00 1.563998930297070977e+01 1.080525199938261416e+01 7.757150000000000212e+00 1.206943365238583254e+01 1.313358449811994433e+01 1.299999999999999886e-04 2.463768972464357887e+00 1.801818697338946862e+01 1.299999999999999886e-04 4.271179443236208684e+00 2.034649228222340156e+01 1.551530000000000076e+00 3.345360059566774957e+00 1.568982735285367625e+01 1.200000000000000030e-04 6.563758821809054789e-01 1.568981096859650570e+01 1.551539999999999919e+00 5.152762026212343471e+00 1.801817300620193407e+01 1.551530000000000076e+00 1.582206375627467576e+00 2.034650550493926602e+01 3.102939999999999809e+00 2.463768972464357887e+00 1.801818697338946862e+01 3.102939999999999809e+00 4.271179443236208684e+00 2.034649228222340156e+01 4.654340000000000366e+00 3.345360059566774957e+00 1.568982735285367625e+01 3.102930000000000188e+00 6.563758821809054789e-01 1.568981096859650570e+01 4.654349999999999987e+00 5.152762026212343471e+00 1.801817300620193407e+01 4.654340000000000366e+00 1.582206375627467576e+00 2.034650550493926602e+01 6.205750000000000099e+00 2.463768972464357887e+00 1.801818697338946862e+01 6.205750000000000099e+00 4.271179443236208684e+00 2.034649228222340156e+01 7.757150000000000212e+00 3.345360059566774957e+00 1.568982735285367625e+01 6.205739999999999590e+00 6.563758821809054789e-01 1.568981096859650570e+01 7.757159999999999833e+00 5.152762026212343471e+00 1.801817300620193407e+01 7.757150000000000212e+00 1.582206375627467576e+00 2.034650550493926602e+01 1.299999999999999886e-04 7.841726217458968584e+00 1.801819013493077293e+01 1.299999999999999886e-04 9.649136315994985225e+00 2.034648545069508430e+01 1.551530000000000076e+00 8.723306939255927261e+00 1.568982089356119580e+01 1.200000000000000030e-04 6.034333127175516509e+00 1.568981413013781356e+01 1.551539999999999919e+00 1.053070890590149666e+01 1.801816654690945541e+01 1.551530000000000076e+00 6.960153255316621213e+00 2.034649904564678380e+01 3.102939999999999809e+00 7.841726217458968584e+00 1.801819013493077293e+01 3.102939999999999809e+00 9.649136315994985225e+00 2.034648545069508430e+01 4.654340000000000366e+00 8.723306939255927261e+00 1.568982089356119580e+01 3.102930000000000188e+00 6.034333127175516509e+00 1.568981413013781356e+01 4.654349999999999987e+00 1.053070890590149666e+01 1.801816654690945541e+01 4.654340000000000366e+00 6.960153255316621213e+00 2.034649904564678380e+01 6.205750000000000099e+00 7.841726217458968584e+00 1.801819013493077293e+01 6.205750000000000099e+00 9.649136315994985225e+00 2.034648545069508430e+01 7.757150000000000212e+00 8.723306939255927261e+00 1.568982089356119580e+01 6.205739999999999590e+00 6.034333127175516509e+00 1.568981413013781356e+01 7.757159999999999833e+00 1.053070890590149666e+01 1.801816654690945541e+01 7.757150000000000212e+00 6.960153255316621213e+00 2.034649904564678380e+01 1.299999999999999886e-04 1.321967309714812089e+01 1.801818367563829426e+01 1.299999999999999886e-04 1.502708356791997346e+01 2.034648898447222720e+01 1.551530000000000076e+00 1.410126418425053885e+01 1.568982405510250189e+01 1.200000000000000030e-04 1.141228037910050475e+01 1.568981766391495647e+01 1.551539999999999919e+00 1.590866615089611003e+01 1.801816970845076327e+01 1.551530000000000076e+00 1.233811050031123280e+01 2.034650220718809166e+01 3.102939999999999809e+00 1.321967309714812089e+01 1.801818367563829426e+01 3.102939999999999809e+00 1.502708356791997346e+01 2.034648898447222720e+01 4.654340000000000366e+00 1.410126418425053885e+01 1.568982405510250189e+01 3.102930000000000188e+00 1.141228037910050475e+01 1.568981766391495647e+01 4.654349999999999987e+00 1.590866615089611003e+01 1.801816970845076327e+01 4.654340000000000366e+00 1.233811050031123280e+01 2.034650220718809166e+01 6.205750000000000099e+00 1.321967309714812089e+01 1.801818367563829426e+01 6.205750000000000099e+00 1.502708356791997346e+01 2.034648898447222720e+01 7.757150000000000212e+00 1.410126418425053885e+01 1.568982405510250189e+01 6.205739999999999590e+00 1.141228037910050475e+01 1.568981766391495647e+01 7.757159999999999833e+00 1.590866615089611003e+01 1.801816970845076327e+01 7.757150000000000212e+00 1.233811050031123280e+01 2.034650220718809166e+01