-2.825060486889999993e+03
-2.825022389660000044e+03
-2.824909138519999942e+03
-2.824721434019999833e+03
-2.824460544340000069e+03
