9.399999999999999448e-05 -5.509050222900845340e-06 2.013446060008600364e-04 -3.049999999999999868e-04 1.053950982178001802e-03 -3.164511449908599585e-04 -5.099999999999999960e-05 -3.791211946680252479e-04 -1.446890500263751586e-03 -1.740000000000000010e-04 -9.021451156311053069e-04 6.662724925238997908e-05 5.490000000000000088e-04 4.743500590996046150e-04 -4.829917405424256644e-04 1.699999999999999987e-05 1.219105770656546666e-03 -4.496911383960199601e-04 8.149999999999999693e-04 5.482644356886518444e-04 -2.986153186944775053e-04 -3.999999999999999819e-06 -3.319388801487933578e-04 -2.608248068063410237e-04 -5.779999999999999548e-04 4.267441011607728523e-04 -5.252489620403682363e-04 3.559999999999999797e-04 1.148066224755796326e-03 -3.419721385946145292e-04 -6.949999999999999798e-04 4.804862205869545391e-04 -3.451246033334403750e-04 9.200000000000000007e-05 -8.530216055257872033e-04 -6.529272935181048459e-05 3.699999999999999811e-05 4.553260835077357037e-04 2.152002734141076517e-04 -6.350000000000000392e-04 6.986385765467075263e-04 -1.016710450108973193e-03 -7.200000000000000182e-05 -6.360975475473614740e-04 -7.137163305006090396e-05 7.100000000000000462e-05 -4.428304993066165202e-04 -6.319542300545609058e-04 5.199999999999999544e-04 1.332399934051600558e-04 1.651547884785449451e-04 1.599999999999999928e-05 7.591295037624043386e-05 -1.649400617350874770e-04 2.099999999999999884e-05 -1.167677283338281217e-03 1.915979174618872801e-04 -7.999999999999999638e-06 -9.677043405468440914e-04 -8.605749876023576590e-04 -4.699999999999999859e-04 1.536670858599877845e-04 1.493834887907601484e-04 6.620000000000000450e-04 7.387855133695758487e-04 -1.067239881767568024e-03 -4.600000000000000004e-05 -1.122757153205181015e-03 1.348865261121297689e-04 -2.799999999999999958e-05 -3.597448568972465223e-04 -6.580650712019137181e-04 5.700000000000000314e-05 1.439975528487574255e-03 -3.498435040942338213e-04 -3.899999999999999929e-04 6.879985621407078925e-04 4.707164523280643652e-04 -9.399999999999999448e-05 -6.217837375466453865e-04 -4.661780601042102724e-04 -8.229999999999999469e-04 5.291373238291991864e-04 -8.675651290176100098e-05 1.959999999999999937e-04 1.377425804455923363e-03 -1.753942793221979074e-04 -7.999999999999999638e-06 1.087575337677435406e-03 6.399600650632923920e-04 -1.630000000000000047e-04 5.012854686022618885e-05 -1.049386906230590839e-04 1.179999999999999951e-04 -3.465764033652014527e-04 -1.217943264947280455e-03 -1.600000000000000131e-04 1.366055462243219529e-03 -2.119964010908331211e-04 4.479999999999999933e-04 7.127521649035859939e-04 4.367715094019430683e-04 2.620000000000000258e-04 -2.543224202378340963e-05 -1.991913679496270498e-04 8.059999999999999673e-04 5.575674466024402743e-04 -2.369188521186846113e-04 7.899999999999999579e-05 8.499834958158172869e-05 -8.222092536822502159e-05 -2.799999999999999755e-04 8.827773926179597989e-04 -6.403038927592405016e-04 -1.029999999999999964e-04 -5.729953601049705535e-04 -1.654817910616807270e-03 -8.200000000000000095e-05 -9.839050535842082303e-04 -1.134541560783792265e-04 6.669999999999999497e-04 5.824784781823405012e-04 -7.502018544727712211e-04 -2.199999999999999943e-05 8.342379601262606571e-04 -8.956740623041264341e-04 9.179999999999999792e-04 2.043596359909126165e-04 -6.120311586656857015e-04 7.700000000000000139e-05 -3.584620656798020218e-04 -5.430330997909513843e-04 -6.790000000000000245e-04 6.508379260700027221e-04 -9.298709555572202230e-04 3.780000000000000265e-04 8.818926012338945989e-04 -7.983805107146062490e-04 -7.470000000000000511e-04 9.049590008185971909e-05 -6.868445909144033860e-04 -5.899999999999999754e-05 -8.665738347529420476e-04 -2.679287011904123335e-04 8.500000000000000611e-05 1.071111054178468594e-03 1.442293646130724048e-04 -6.899999999999999667e-04 1.191050688408774785e-03 -7.998895283981311563e-04 -1.699999999999999987e-05 -4.877935025412036751e-04 9.522341560028634228e-05 8.700000000000000051e-05 1.994404333116100102e-04 -4.217161528332502183e-04 3.620000000000000171e-04 7.758029447615281482e-04 7.126773417309707986e-06 -8.000000000000000654e-05 6.414462438509147728e-04 -1.880072239291700922e-04 4.600000000000000004e-05 -1.036702198734899653e-03 3.228134928069545059e-04 -3.899999999999999929e-05 -3.422841915383406262e-04 -6.997439047415450952e-04 -3.739999999999999835e-04 7.581275125218291631e-04 -9.128348567766376282e-05 8.199999999999999824e-04 1.246101322913293220e-03 -9.070129508632947951e-04 -1.219999999999999974e-04 -9.003984520335488921e-04 2.747064389044956965e-04 -1.299999999999999920e-05 1.872998554303756337e-04 -4.252666976801268775e-04 3.100000000000000135e-05 6.718663657910516583e-04 -5.533927958681114211e-04 -3.269999999999999795e-04 3.773887150714023584e-04 8.401046206726849790e-05 -3.699999999999999811e-05 -5.875839593285618221e-04 -4.614478201701371299e-04 -7.600000000000000418e-04 6.333698852876860036e-06 -1.523413412663846553e-04 3.759999999999999779e-04 8.004133428456537041e-04 -3.530389222092184041e-04 -8.299999999999999815e-05 5.821693503409399633e-04 2.354927759478158897e-04 -1.499999999999999869e-04 1.036129460294560361e-04 -9.292124307765711050e-05 1.430000000000000064e-04 -9.723659032438664116e-04 -1.200637143440406963e-03 -3.110000000000000243e-04 8.614970427072741544e-04 -4.593863792132082480e-04 4.670000000000000214e-04 2.529735557869778879e-04 -5.420338780265461897e-06 2.079999999999999872e-04 1.040796632372218745e-04 -1.609857872621881295e-04 7.159999999999999481e-04 -2.392326447759441800e-05 -2.392753171907522085e-04 -3.000000000000000076e-06 5.197398716801317946e-04 2.788466707456273546e-04 -4.380000000000000213e-04 1.018491331913048102e-03 -3.281393100772694404e-04 1.019999999999999992e-04 -1.880473324776749187e-04 -8.305758248035099512e-04 -1.599999999999999928e-05 -9.691702443048671274e-04 2.552528894137044441e-04 5.360000000000000181e-04 9.915414975854423309e-04 -7.023955143407587583e-04 2.699999999999999899e-05 1.052585129035893711e-03 -6.486305158813385988e-04 8.289999999999999843e-04 4.915645440615171906e-04 5.974361071774066155e-05 -6.499999999999999431e-05 -3.831726749291857652e-04 -1.318283019219038316e-04 -4.640000000000000027e-04 9.834525605147115788e-04 -6.240401118654618487e-04 4.580000000000000195e-04 9.990320526296128656e-04 -2.863860293706077444e-04 -8.570000000000000144e-04 5.844170697647876412e-04 1.883764543873241539e-04 1.200000000000000030e-05 -9.746592603221834131e-04 3.765412676828595331e-04 3.199999999999999855e-05 6.432874690957574460e-04 6.404984247477703545e-04 -6.229999999999999644e-04 5.713715458818960976e-04 -9.409205899312293384e-04 -2.099999999999999884e-05 -5.462201038349818842e-04 -5.330371452033168039e-04 5.700000000000000314e-05 5.816018600452146963e-05 -4.534792087449208303e-04 4.189999999999999931e-04 4.755499088043930382e-04 4.626189406370362876e-04 3.399999999999999973e-05 3.087541969995144715e-05 -1.382451028367798923e-04 6.000000000000000152e-06 -1.005136760463427262e-03 -2.267423488567748126e-04 1.099999999999999971e-05 -4.982075714424736039e-04 -6.679178211107956445e-04 -3.600000000000000227e-04 4.776974170629824201e-04 4.665417213190640533e-04 6.459999999999999814e-04 6.383623359371324527e-04 -9.424152630644773692e-04 -6.399999999999999710e-05 -9.502063713297516584e-04 -2.027704413477140024e-04 -4.399999999999999886e-05 8.658746395010869434e-05 -4.425297855361700109e-04 3.800000000000000209e-05 9.146893428636908860e-04 -7.775869122172710457e-04 -4.130000000000000099e-04 6.356394049598931102e-04 5.342926373573974908e-06 5.700000000000000314e-05 -8.916653347324458986e-04 -4.311077949150024383e-04 -6.840000000000000377e-04 1.695242120254182713e-04 -4.726378545325808536e-04 3.739999999999999835e-04 9.444795889863963519e-04 -6.225883921083724465e-04 2.799999999999999958e-05 8.246916939178044114e-04 1.644159663262146341e-04 -1.430000000000000064e-04 -2.448502800977217248e-04 -2.600660307230978261e-04 5.199999999999999680e-05 -7.478826531215547295e-04 -1.514210532640644690e-03 -3.240000000000000150e-04 9.202041630165710409e-04 -6.026709702374692798e-04 4.510000000000000120e-04 6.606020448109209669e-04 8.446856451740113235e-05 9.799999999999999684e-05 -2.827265783261682214e-04 -1.485788743663686009e-04 7.299999999999999632e-04 1.031289993064237896e-04 -4.551542700031009181e-04 -4.800000000000000122e-05 -2.709640062100642042e-04 -5.312819471227987929e-04 4.199999999999999768e-05 5.871823931801220357e-03 -6.292931567554702760e-03 2.000000000000000164e-05 -6.596315829925007354e-03 5.648453104335805081e-03 1.469999999999999953e-04 -6.110160165058468526e-03 5.509260182395880716e-03 -4.629999999999999784e-04 2.671787806888172243e-05 1.531115769349149268e-04 -7.499999999999999343e-05 5.657010198635204282e-03 -5.934687153720683873e-03 5.019999999999999506e-04 -3.663763845555799968e-04 -8.629602220496504408e-04 3.699999999999999811e-05 5.939467597119134010e-03 -6.008252213645154036e-03 -6.000000000000000152e-06 -6.490953375470341277e-03 5.602499288484578607e-03 1.550000000000000000e-04 -6.127990261562207483e-03 5.030592147471187568e-03 -4.000000000000000327e-05 4.841084079105433631e-04 1.550872315515339564e-04 -3.199999999999999855e-05 5.573182929383186171e-03 -6.089674214244295697e-03 -6.040000000000000447e-04 -3.620756382457576282e-04 -8.280961491209383159e-04 -6.099999999999999872e-05 5.988740001558512209e-03 -6.136174964400296916e-03 -3.699999999999999811e-05 -6.581383483280139543e-03 5.726951671352518806e-03 -1.499999999999999869e-04 -6.077858829736992007e-03 5.113783730838459413e-03 3.339999999999999870e-04 -6.766077442117254367e-06 3.327491842284924689e-05 1.510000000000000112e-04 5.629310202981989072e-03 -6.006705972378114863e-03 2.400000000000000061e-05 5.281752003131139463e-04 -4.349620187719867325e-04 2.599999999999999840e-05 5.394289874034582585e-03 -5.465582654657049136e-03 -7.299999999999999903e-05 -5.523801819432922616e-03 5.078135037553604438e-03 1.800000000000000046e-05 -5.365974226702204669e-03 5.822776193395010937e-03 -5.249999999999999676e-04 -4.302947262823210786e-04 -1.610945329104079946e-04 -1.969999999999999909e-04 5.513204557716404157e-03 -5.308900498669673340e-03 -1.589999999999999888e-04 4.410636810914682739e-04 -5.437948411138558702e-04 2.139999999999999975e-04 5.439275876714414967e-03 -5.386202181221259010e-03 -1.500000000000000038e-05 -5.491254143165110076e-03 5.495212546860406971e-03 -2.829999999999999942e-04 -5.633997529677239532e-03 5.719681532707112694e-03 -6.099999999999999872e-05 -3.802606206573737975e-04 1.612664266897142118e-04 2.799999999999999958e-05 5.450588880863348543e-03 -5.969027211515194262e-03 7.299999999999999903e-05 4.229072272310623981e-04 -4.670658167279368692e-04 -1.679999999999999907e-04 5.488768777827231216e-03 -5.347017327777141282e-03 6.099999999999999872e-05 -5.577646994852017079e-03 5.110161543514870480e-03 3.710000000000000190e-04 -5.775930612109669675e-03 5.750986486168650942e-03 4.679999999999999915e-04 -4.470796373453113132e-04 -7.440966248535915836e-05 1.659999999999999963e-04 5.581561160776411790e-03 -5.327457837328447750e-03 1.200000000000000030e-05 -2.652001206952011160e-04 -7.526499159524638154e-04 -3.800000000000000209e-05 4.976590902981302932e-03 -6.443712282866435014e-03 4.970000000000000459e-04 -6.405565680950348409e-03 4.912842894600957279e-03 1.019999999999999992e-04 -6.096562177764837387e-03 5.229560173919723526e-03 9.600000000000000243e-05 -6.185768598463737026e-04 -1.051703222616817961e-03 -1.299999999999999920e-05 4.989916945879712719e-03 -6.085960390375746119e-03 3.330000000000000169e-04 -6.324239526393239923e-04 -7.249613397471994358e-04 2.259999999999999910e-04 5.038427729408195138e-03 -5.965682778654141961e-03 1.000000000000000082e-05 -6.014644810994711904e-03 4.930303519822527500e-03 1.019999999999999992e-04 -6.190757597302306431e-03 5.226064042034292596e-03 -1.000000000000000082e-05 -5.608861957399362188e-04 -9.267640883355279715e-04 5.800000000000000034e-05 4.874243558791360731e-03 -6.316814603071784807e-03 -4.440000000000000045e-04 -6.730662556331757024e-04 -7.414599217273558753e-04 -1.669999999999999935e-04 5.052312085921995856e-03 -5.942183318145490174e-03 -3.950000000000000061e-04 -6.358629747514790709e-03 4.937112590778139527e-03 -6.999999999999999387e-05 -6.237825235693994497e-03 5.278852652702022315e-03 -2.210000000000000050e-04 -6.815503878469676008e-04 -1.130413671549335272e-03 -3.199999999999999855e-05 4.903452572128100088e-03 -5.935637697239474174e-03 -3.899999999999999929e-05 4.909577078266672695e-04 1.735927858272222346e-03 -6.000000000000000152e-05 5.679155466273714051e-03 -4.480503675915624082e-03 -4.899999999999999842e-05 -5.857922345772152879e-03 6.746728599173329455e-03 3.000000000000000076e-05 -5.247257080385910565e-03 6.269666827857757301e-03 -4.730000000000000046e-04 -1.193354421364312487e-04 1.175256589962422838e-03 -1.920000000000000049e-04 6.379787087501649634e-03 -4.127338939092261780e-03 5.249999999999999676e-04 3.521284471015967399e-04 1.393858513889346647e-03 1.169999999999999979e-04 5.882140794914229170e-03 -4.242894845362754283e-03 -3.000000000000000076e-06 -5.651011391621956273e-03 6.821078159041934520e-03 7.299999999999999903e-05 -5.231156538376469101e-03 5.922827134992304093e-03 -1.399999999999999979e-05 3.017507546047161048e-04 1.196597042489861871e-03 6.000000000000000152e-05 6.370627241129279104e-03 -4.212056689383653942e-03 -6.290000000000000018e-04 3.175764672539466041e-04 1.299078976600923562e-03 -8.899999999999999491e-05 5.919547531107255227e-03 -4.125205695109278141e-03 2.149999999999999947e-04 -5.719236289725834407e-03 6.762577190855797830e-03 -2.000000000000000164e-05 -5.190502775797330506e-03 5.993362740101772744e-03 3.869999999999999742e-04 -2.189368559038883783e-04 1.160954199409658123e-03 1.759999999999999954e-04 6.338477644969515643e-03 -3.973694772402848983e-03 -4.199999999999999768e-05 -3.487695894155960503e-04 -4.104599248253873683e-05 -4.300000000000000165e-05 5.446949704848508093e-03 -4.804084399014110947e-03 -1.050000000000000044e-04 -5.775057320448227956e-03 5.505784044578698917e-03 7.499999999999999343e-05 -5.013112847790264330e-03 6.484099750568324619e-03 -5.519999999999999733e-04 -1.248747162582527440e-03 -5.055219027982596665e-05 -1.610000000000000103e-04 4.709721771919251655e-03 -4.420376209228102024e-03 -1.840000000000000001e-04 -4.030213794257022719e-04 -1.811236255318565583e-04 2.480000000000000108e-04 5.426431015986055151e-03 -4.522125211528819737e-03 3.600000000000000091e-05 -5.719325161717812682e-03 5.819927206979614784e-03 -3.510000000000000208e-04 -5.176555391564449486e-03 6.314065827821646083e-03 -4.399999999999999886e-05 -1.167388069290457809e-03 3.336856240210211771e-04 5.899999999999999754e-05 4.699052907863355243e-03 -4.814252046694373829e-03 1.169999999999999979e-04 -4.881858127192751002e-04 -1.839554627066589815e-04 -1.240000000000000054e-04 5.511669896446657647e-03 -4.517294760429489166e-03 7.799999999999999859e-05 -5.824132187522078688e-03 5.343498316858471230e-03 4.139999999999999800e-04 -5.263581004033778335e-03 6.261268642533619581e-03 4.400000000000000157e-04 -1.214647595529702280e-03 5.217151896766662851e-06 8.200000000000000095e-05 4.702706588977815377e-03 -4.340059416411790744e-03 -4.000000000000000327e-05 -1.171594053266314920e-04 2.665458192197171046e-04 -5.199999999999999680e-05 5.660973248415080740e-03 -4.350736935362656266e-03 4.459999999999999989e-04 -5.993685048510714007e-03 5.681043613567769712e-03 5.099999999999999960e-05 -6.213518235658626633e-03 5.931400099060737778e-03 1.079999999999999960e-04 3.421124181710418410e-04 9.369146670498665775e-04 -4.600000000000000004e-05 6.021880530746921527e-03 -4.494270672023572069e-03 3.310000000000000225e-04 -5.313363600842446310e-04 1.889091645538301873e-04 1.569999999999999944e-04 5.734859016178246380e-03 -3.952211034921985187e-03 1.000000000000000082e-05 -5.753049648107833557e-03 5.613039171999991729e-03 1.129999999999999955e-04 -6.279999355129938128e-03 5.892848046536376325e-03 1.500000000000000038e-05 4.579060506302370394e-04 1.036673549771681413e-03 6.000000000000000152e-05 5.698460081293109207e-03 -4.902514732452005475e-03 -4.279999999999999950e-04 -6.567651307438746207e-04 2.065903265861728042e-04 -1.440000000000000036e-04 5.816501553588158784e-03 -3.802146062042665881e-03 -3.269999999999999795e-04 -6.065523479043212832e-03 5.686721632467651652e-03 -1.340000000000000045e-04 -6.396517384916515329e-03 6.042288833253571002e-03 -2.010000000000000068e-04 2.996203955867214283e-04 9.244877600857983246e-04 3.000000000000000076e-06 5.937497792707165448e-03 -4.476117062990819968e-03 -4.899999999999999842e-05 -3.133042093579987454e-04 -2.339315831472745317e-06 9.200000000000000007e-05 5.391409233278970578e-03 -6.483180660703069358e-03 -9.100000000000000287e-05 -6.103081954397953680e-03 5.726147016790790988e-03 -4.600000000000000004e-05 -5.503881432322358866e-03 5.989024810345772165e-03 -4.550000000000000008e-04 -1.022070605997813918e-03 -4.932967426967893240e-04 4.899999999999999842e-05 5.357931087835286592e-03 -5.877514734818468575e-03 4.870000000000000197e-04 -4.738061301718262362e-04 -4.426700249752614849e-04 1.579999999999999916e-04 5.445274523178320059e-03 -5.896779321564029307e-03 1.399999999999999877e-04 -5.916403400164712764e-03 5.687171160297486636e-03 1.069999999999999988e-04 -5.552403675436127194e-03 5.814710175494854603e-03 0.000000000000000000e+00 -5.708877998455428367e-04 -4.430565652233535759e-04 -2.900000000000000017e-05 5.348115561509918930e-03 -5.738052713310976688e-03 -6.199999999999999999e-04 -4.539202020917945972e-04 -3.923753944030442778e-04 -3.390000000000000001e-04 5.506358223039940943e-03 -6.003126778568019205e-03 -3.499999999999999693e-05 -6.059573475610773377e-03 5.470350198449308761e-03 9.999999999999999547e-07 -5.546158728163222244e-03 5.767444959600302908e-03 3.530000000000000152e-04 -9.871807690708738706e-04 -5.506352051736601279e-04 6.799999999999999946e-05 5.336673616957839095e-03 -5.937765211429814859e-03 -2.199999999999999943e-05 -9.242307221635552800e-05 -5.469387312323843904e-04 1.299999999999999920e-05 6.056959290281754144e-03 -5.056966398530799919e-03 -2.900000000000000017e-05 -6.738916051895719669e-03 5.849900806466913107e-03 -5.000000000000000409e-06 -6.005524952758837902e-03 5.873617798409339757e-03 -5.619999999999999996e-04 -2.047547909966378980e-04 4.939640427844148481e-04 9.000000000000000228e-06 5.874967942331756066e-03 -5.778692211614510840e-03 -2.400000000000000061e-04 -1.885541180966097323e-04 -6.023988251555689559e-04 1.800000000000000113e-04 6.066279490573473279e-03 -4.914214397261037516e-03 1.250000000000000026e-04 -6.651541082624478837e-03 6.153859051534964902e-03 -3.319999999999999926e-04 -6.171939653421588956e-03 5.650657830246158184e-03 -3.199999999999999855e-05 -6.816751990277159065e-05 9.101682202924387408e-04 -3.100000000000000135e-05 5.682619903681594697e-03 -6.294890072930727463e-03 1.060000000000000016e-04 -2.181668209220370247e-04 -6.183075595921272080e-04 -1.769999999999999926e-04 6.104485071260912742e-03 -5.043726302522042251e-03 9.600000000000000243e-05 -6.747354345768363272e-03 5.677095149162185266e-03 3.089999999999999756e-04 -6.245410191836109348e-03 5.639384854371058166e-03 4.829999999999999767e-04 -1.761099013426035314e-04 4.838907962020960653e-04 5.700000000000000314e-05 5.890876676768313884e-03 -5.808304914439937211e-03 -2.199999999999999943e-05 4.398383483498024128e-04 1.008326448785768024e-03 1.450000000000000009e-04 5.178485368389263571e-03 -5.590636304516538244e-03 3.710000000000000190e-04 -5.632328158074366778e-03 6.086873870860364313e-03 -5.000000000000000409e-06 -6.073311702343497237e-03 6.310443801047400936e-03 1.510000000000000112e-04 9.699868802372467187e-05 4.817232136005863649e-04 -5.800000000000000034e-05 5.822425712747698531e-03 -4.663963852725970700e-03 3.420000000000000188e-04 -7.793912955592079120e-06 9.459456934310979262e-04 2.239999999999999966e-04 5.379440629451713932e-03 -4.977691785778240452e-03 1.299999999999999886e-04 -5.408572150107091199e-03 6.183611913524811668e-03 1.129999999999999955e-04 -6.121249787568974927e-03 6.447323090879408629e-03 -4.500000000000000283e-05 1.836635242431890679e-04 5.785643523952816282e-04 -1.900000000000000105e-05 5.676403725783913876e-03 -5.064806189964876117e-03 -4.859999999999999954e-04 -5.152861820885211674e-05 1.007616396008662952e-03 -2.059999999999999928e-04 5.402109711537745815e-03 -5.067597918591173686e-03 -3.299999999999999982e-04 -5.642444358032844623e-03 6.030211162679408737e-03 -5.300000000000000078e-05 -6.236436383106641612e-03 6.417590142683137801e-03 -1.820000000000000057e-04 1.135717171709113354e-04 4.430795245312635073e-04 3.800000000000000209e-05 5.807562083477217814e-03 -4.767482317382811842e-03