-6.411090871608836395e+00 -4.416233161498612646e-04 -9.578181915546078251e-04 -4.416233161498612646e-04 -4.219078543827126282e+01 -3.203626179742352065e+01 -9.578181915546078251e-04 -3.203626179742352065e+01 4.584796655658755782e+01
-6.233937477449048359e+00 8.705086896914470546e-03 -1.106804521948088621e-01 8.705086896914470546e-03 -4.240639909725435075e+01 -3.167124518742124195e+01 -1.106804521948088621e-01 -3.167124518742124906e+01 4.558826390703611509e+01
-6.378211818261799948e+00 1.080139081515314216e-02 -2.189632218258525942e-01 1.080139081515314216e-02 -4.296579918843100643e+01 -3.130538590089621209e+01 -2.189632218258525942e-01 -3.130538590089621920e+01 4.506407506116236306e+01
-5.731908205769530973e+00 1.041754101010454632e-02 -3.404280140977249403e-01 1.041754101010454632e-02 -4.272227807201842609e+01 -3.094013737361934346e+01 -3.404280140977249403e-01 -3.094013737361933991e+01 4.541913120775064527e+01
-4.848494085179263280e+00 1.377493211281900862e-03 -4.605149107713962242e-01 1.377493211281900862e-03 -4.224248736532486248e+01 -3.057784416081037904e+01 -4.605149107713962242e-01 -3.057784416081038259e+01 4.591705117871727282e+01
