-1.441102101109988044e-04 -1.922207196038463995e-04 1.254899969736325005e-01 5.798644801045737488e-04 6.750469138084904666e-04 3.341014044997518955e-03 -4.481527453753868478e-04 9.850538009714979518e-04 3.769967788457098592e-03 -1.041142286295958621e-03 1.450503948347658500e-04 3.496955550567479570e-03 9.688557502095959629e-04 -2.279505976602950448e-04 3.538042687745883170e-03 6.490429901982611247e-05 1.990333236154734114e-04 2.353999823292118355e-03 -5.361668042444502546e-04 -7.949417206510379398e-04 4.080989441152067278e-03 2.378996073604302533e-04 1.880348186047141074e-04 2.469007023847855174e-03 2.938526667557784557e-04 -6.299491050072788959e-04 3.606020900569080825e-03 8.887301162427108952e-06 2.103923708848294679e-05 2.768000066181499144e-03 1.287427595033895710e-05 -2.395624332224428990e-05 3.087000866767717396e-03 -2.912495345315997176e-05 -2.795647981411439578e-05 3.067999213220686840e-03 9.872400493428810120e-06 7.704443955073965390e-05 3.134999312606433219e-03 -2.612832618324509491e-05 8.504472293811131953e-05 3.152997733216952696e-03 8.868254779330600178e-06 3.504587229530157691e-05 3.235999867257758483e-03 4.687103079211423228e-05 -7.955135722097518965e-06 3.167002024358072342e-03 -1.012508579291262207e-05 1.104356201620844453e-05 3.071999433980364402e-03 -4.312602234486268173e-05 1.104391394437494593e-05 3.094998090170897071e-03 -2.882014749189872483e-03 -9.489928661478036096e-04 3.438960968848304013e-04 2.879972862977893747e-03 -9.539930677213595382e-04 6.481308010351838388e-04 -9.119067778691329097e-06 -1.039585654244988712e-04 2.922001105283454289e-03 -2.313122290035115041e-05 -2.595430113180701977e-05 3.221999429047108301e-03 -1.107250884409667163e-05 1.750253017822436840e-04 1.783997069303627347e-03 2.186982640128429790e-05 -3.795470498810373872e-05 3.196001431642739744e-03 6.675881294863058827e-06 4.078113955227048032e-03 8.037942460654427107e-03 4.168421387028476604e-04 9.010548817349161828e-04 3.894004202810175293e-03 -4.351541941477554232e-04 9.030542728458568333e-04 3.803969480373161315e-03 -4.539645479361148353e-04 -1.624210562826161330e-01 -3.993715717031626027e-03 -5.408310141747946654e-04 -1.307058768562960500e-03 -4.175003495762529167e-03 9.981873631682036153e-04 -8.740662544010417397e-04 -4.617946964932429475e-03 -3.664846170608812917e-03 3.771950340568830124e-03 -3.705202716998978740e-03 3.628127368341946008e-03 4.256953973296115530e-03 -3.045912616659672122e-03 4.712568237057694750e-05 -2.370438603423947251e-04 -3.090994723116666926e-03 -2.340896244010998335e-03 4.257966870121379643e-03 -2.466155694136917473e-03 -1.498660158497206699e-04 -1.400465700165940731e-04 -3.293004120179614507e-03 2.499094929631764245e-03 4.223966142827211868e-03 -2.249958123374348317e-03 -4.239569472648562973e-03 2.471854098358297093e-03 -1.052520769405600187e-02 -2.288332764718583559e-05 1.649594411419481703e-04 -2.862003273250037297e-03 4.268428935291452252e-03 2.423847975388065696e-03 -1.048686056055738065e-02 -2.157357215123216569e-05 -4.938149799039880453e-03 -1.056693087623965764e-02 -1.125746618677813575e-03 -7.080875310068389080e-04 -6.236035808024847568e-03 1.153251546310535107e-03 -5.010886207639735470e-04 -6.186945940047740289e-03 -1.338821350470476988e-04 -1.320409681383752571e-04 -2.897003582436225109e-03 1.651184113144985607e-04 -1.100413865677834385e-04 -2.909991718800452980e-03 -2.574696710623327884e-05 1.290912273852249433e-03 -6.189019356481481084e-03 -4.687157189165536895e-05 4.495533420750258001e-05 -3.153002548948334940e-03 -2.687118977419484709e-05 1.295517677285179421e-05 -3.163001280833585473e-03 8.012778428032419698e-05 2.955447438155306067e-06 -3.137996781948121372e-03 -1.687138560091667029e-05 -8.104478851424740473e-05 -3.159999540918097347e-03 4.712976787525263630e-05 -1.204522143343217360e-05 -3.186997913024206160e-03 -1.987058210169442995e-05 8.954958625351500852e-06 -3.178000939062629576e-03 -8.870359750816714800e-06 -7.104514922410884036e-05 -3.184999356905682949e-03 3.612980084442513024e-05 1.339548155203977792e-04 -3.185000430908893534e-03 -1.887024071429663037e-05 -7.504518392713011531e-05 -3.187999707400351358e-03 -6.151091059032227047e-03 1.344404018845347590e-02 2.494558917873380618e-03 1.389546408459233905e-04 -1.501984725777077805e-03 1.085026954190418738e-03 5.996901712408451469e-03 1.358603322860502463e-02 2.675051581363005384e-03 -2.027431303845398281e-04 2.453191741486137473e-02 -5.836356069801017406e-03 1.477029977648585714e-03 1.049988692107345573e-03 -7.159547412889488271e-04 -1.263978149433078561e-03 9.129936313393067528e-04 -5.190644149713954242e-04 -1.974972098327092314e-03 1.618992273976026632e-03 -6.541033768720513160e-04 1.992028062908129081e-03 1.776989153636552351e-03 -6.549440773413699310e-04 -4.036903157586735237e-06 3.469013797777158094e-03 9.729506535506286411e-04 -1.664013161237956140e-03 8.190061090956670146e-04 3.389206286003284608e-04 1.589984724923027438e-03 9.830043409883874785e-04 3.940508090455254082e-04 6.630861077028405565e-05 1.854893005024823693e-03 -7.543023605163097847e-03 -1.689708107340353671e-03 -8.781005441076687908e-04 -7.185056363482898723e-03 3.298722801713612515e-05 -1.020995857464107766e-03 2.940158190112849082e-04 1.648304738845807410e-03 -9.541076521023056844e-04 -7.501919359477165171e-03 2.798267161392300166e-05 -1.794994478224948634e-03 3.910265889057819343e-04 -9.330116568652207197e-04 5.570049412844843258e-04 2.969541101555662446e-04 9.009815717677622854e-04 5.440058587848753185e-04 4.630289763531258290e-04 6.299410091096055040e-05 7.002006450864162855e-06 1.450024660344843104e-04 -1.110018699073018355e-04 5.600075326330994168e-05 4.699468598708076301e-05 4.099227084212730016e-05 1.000266167726850496e-05 1.900015276006374130e-04 5.899289574412104142e-05 2.800243491459264184e-05 1.750020053901590791e-04 9.952731974726953069e-07 -1.079983845034371108e-04 1.140015718133313667e-04 -6.900654740368617802e-05 -4.099767752187385739e-05 1.599977714008393845e-04 2.599373604621654687e-05 6.100217719423174336e-05 1.550001937544697708e-04 -6.900670871989925115e-05 -3.899762081089402449e-05 1.639977430415940284e-04 4.099441883521125836e-05 -5.499810391712836534e-05 1.360024492054611074e-04 3.002508298816096086e-02 -1.852205746341224757e-02 -2.393514753683895473e-03 5.100567098366957670e-04 -1.966720281727682667e-04 2.316102357984389445e-02 -3.054094742977211605e-02 -1.764999919454152133e-02 -1.630993416473511346e-03 3.931202003402399525e-04 3.543296750511498033e-02 -2.270486355288255792e-03 -7.389163589816481704e-04 5.483197766807259383e-04 2.251396215766851561e-02 3.440863241365759361e-04 -3.396822479716054936e-04 2.243101884828139353e-02 -1.306870552441846516e-03 1.783041721954915684e-04 2.138194427504987172e-02 9.609248059100870820e-05 3.973160037791783478e-04 2.229399830062599522e-02 1.213128703314895421e-03 6.343025817996834079e-04 2.140904042650944653e-02 1.721523579601493838e-04 -4.770502464301060522e-05 2.081500770589029756e-02 6.139547513250763389e-06 2.529958551032682697e-05 2.113099991095852836e-02 -1.708488070132383005e-04 -7.970435909383299185e-05 2.084299419230076916e-02 4.715547329551988048e-05 1.342940382340996957e-04 2.074200003549881918e-02 -1.585058475443303530e-05 -6.170385663705576682e-05 2.088700024879204531e-02 -1.484975160764246687e-05 -1.937041834960381620e-04 2.086400216099905738e-02 3.214437600804968386e-05 -4.870213617555676112e-05 2.101100201896670405e-02 -1.585792234136995421e-05 -7.170130463288228455e-05 2.106700039040235173e-02 -3.850305203520164344e-06 -6.870396527687150509e-05 2.088000083669310988e-02 1.614207794101769317e-05 -1.058701598967370277e-03 2.104801568693979302e-02 -1.483918889874002696e-03 -6.036790727591886258e-04 2.255394815338076717e-02 1.458070004217328422e-03 -5.866775057974588960e-04 2.282706771284899114e-02 4.641790414127711637e-04 1.162285786233460379e-03 2.018300244187253706e-02 -5.148135802760239873e-04 1.119283972432275759e-03 2.000096318597231054e-02 5.614935317446677061e-05 1.262296469654221537e-03 2.091398440930939545e-02 -1.077814338274073322e-03 -1.407716011819998584e-03 1.997097608736929722e-02 -4.884673397882877816e-05 2.150295431733463634e-03 2.083496754383950753e-02 1.096182222942188164e-03 -1.376716508944160955e-03 2.005606417490994609e-02 -1.333936767042271168e-02 1.757179508268569626e-02 -1.519079233369294291e-02 1.271651384333201407e-02 1.782181599500834088e-02 -1.227573485834596370e-02 6.368489773957952379e-04 1.937039658505410782e-04 -2.084497683264732379e-02 -8.961280543293041268e-04 1.129697425013020257e-03 -2.139105252759113118e-02 -1.092012613338961332e-04 3.428722924062339167e-03 -1.954905307667183234e-02 1.007876771390473197e-03 1.781694431276301680e-03 -2.149698423889384591e-02 -5.114118403032749064e-04 3.976245829548494953e-02 -3.823658460466124176e-02 -1.625088110548450178e-03 1.020684059055364332e-03 -2.237408066680158375e-02 2.163897077443788491e-03 1.453686366379153402e-03 -2.200193251481409248e-02 -3.698432667259602774e-05 1.764640718008988411e-05 -2.494200177940604155e-02 -3.616506049025165943e-05 -1.300291026859098789e-03 -2.052898305649525704e-02 7.283081956234118857e-05 -1.309289680247440781e-03 -2.042797849041650543e-02 1.186837861108744905e-03 5.587075049485609127e-04 -2.056495961132316294e-02 -1.191165656099836458e-03 6.407106145511450631e-04 -2.047705760816552478e-02 -1.048842642336546216e-06 -5.233117755065494849e-05 -2.335899932248351393e-02 1.117837541792747816e-03 8.267077432596177909e-04 -2.055196622071458340e-02 -3.811334045439670895e-05 5.669133739266043727e-05 -2.177300237600556659e-02 -1.070160649812649124e-03 7.937088184577424004e-04 -2.059705485002880088e-02 3.386058715326906355e-05 -9.299659365172137384e-06 -2.113399850896590867e-02 -2.143894484975567896e-06 -6.429808579207129597e-05 -2.102499919524088504e-02 -4.515034555566856535e-05 -3.429579785679818984e-05 -2.086600137171819302e-02 -1.414910588402678439e-05 9.270378087924774845e-05 -2.089400190992174097e-02 -5.316404102206382596e-05 5.270900049323322764e-05 -2.052800293126462797e-02 3.385029888506895293e-05 8.703927615240150480e-06 -2.088099876440083907e-02 6.183558531785235282e-05 -8.290976122812296443e-06 -2.051999738353061514e-02 -4.614343630780518094e-05 7.018068752531812735e-07 -2.103500190850366575e-02 -2.614278635809998174e-05 -1.298435629194126080e-06 -2.105100106571624122e-02
-1.391091866091311144e-04 -1.852210779644169396e-04 1.254649970780156443e-01 5.768642068147841143e-04 6.900470154005342027e-04 3.348013710162006402e-03 -4.511536028612593758e-04 9.820541010544913806e-04 3.790967708808314247e-03 -1.034142898681511416e-03 1.430506020209248454e-04 3.511955863955020136e-03 9.818552403922495200e-04 -2.549504377029788321e-04 3.550043599905406723e-03 4.490380803561353125e-05 1.960335094092433017e-04 2.365999051397230796e-03 -5.371674957143276205e-04 -7.939414788456214053e-04 4.097989386237649301e-03 2.218989237387288145e-04 1.990350721540648624e-04 2.486006216343036174e-03 3.078515696322070084e-04 -6.269487331690525977e-04 3.633021428102606917e-03 5.886641012166769572e-06 1.003946628330615578e-05 2.784000099959469971e-03 1.687333936770109177e-05 -2.395592036493555997e-05 3.110001029629741193e-03 -3.012600827630343263e-05 -2.295611040894285774e-05 3.093999101586848797e-03 -3.128247111361737145e-06 8.204467657391142726e-05 3.150998712331677925e-03 -1.812926276920055893e-05 8.504504276343543504e-05 3.175998058962380740e-03 1.186756565685615510e-05 3.904611096843103684e-05 3.252999932693454496e-03 4.287070189441779188e-05 -1.195501916734674444e-05 3.175001918178284484e-03 -1.712617976477271713e-05 1.804395029695066453e-05 3.098999049664963399e-03 -3.312659244491684274e-05 1.104410460354847049e-05 3.108998497366393266e-03 -2.892014583947497604e-03 -9.459929150293259559e-04 3.398956471467472662e-04 2.884972203604571541e-03 -9.639928447906064967e-04 6.641311464022004634e-04 -1.119684866514597715e-06 -1.119583590207311820e-04 2.937001544458426542e-03 -1.513146801559990728e-05 -2.695422232890327328e-05 3.227999768986103152e-03 -1.907262316424663471e-05 1.850253505785909357e-04 1.786996601756395044e-03 2.586909577356695305e-05 -3.495445292007425935e-05 3.214001551976120811e-03 1.167499013367673075e-05 4.084114263222959722e-03 8.059942579171650370e-03 4.228413634347641349e-04 8.990551464152528099e-04 3.913004475473146407e-03 -4.441543523222099164e-04 9.090543366033986515e-04 3.807969028815201985e-03 -4.409646269629125914e-04 -1.622620562219221074e-01 -3.988717441929599816e-03 -5.458310165213681349e-04 -1.310058764647677220e-03 -4.175003656833493892e-03 9.851878118917994486e-04 -8.730664001779415984e-04 -4.628947508471032216e-03 -3.670846240291914583e-03 3.786950373620885397e-03 -3.703203173992396843e-03 3.632127003418215115e-03 4.258954097764086448e-03 -3.036912482140161247e-03 4.812559544305311759e-05 -2.440438327690944544e-04 -3.088994583153331034e-03 -2.335896197025716988e-03 4.265966852027797650e-03 -2.467155603953840454e-03 -1.588657292292290082e-04 -1.380466622143978323e-04 -3.300004515016294413e-03 2.498095175524780564e-03 4.225966058543233032e-03 -2.255958192445149408e-03 -4.247568407631499912e-03 2.479853735998780763e-03 -1.055120813322074982e-02 -2.188201987969395175e-05 1.709589866688955378e-04 -2.894003317566019515e-03 4.277429997160122829e-03 2.427847599718017339e-03 -1.051286025075660359e-02 -1.457235680042552099e-05 -4.946150229853908328e-03 -1.059693047774370490e-02 -1.141745560706276114e-03 -7.090878871014790353e-04 -6.262036445356532373e-03 1.164252846233998192e-03 -5.050890830659795659e-04 -6.218945435377576901e-03 -1.368810810041601322e-04 -1.380413344114613471e-04 -2.923003619508028183e-03 1.731190542219951736e-04 -1.210416196753695659e-04 -2.925991237063372587e-03 -2.974606340870055801e-05 1.300911965071728125e-03 -6.211019661122069331e-03 -3.587055074548454396e-05 4.895497114925753440e-05 -3.178002157706786082e-03 -2.087033307438403395e-05 1.495487434097060939e-05 -3.184001064844484488e-03 6.512871381992405852e-05 -6.044866905288405447e-06 -3.160997265139636400e-03 -1.387029084216548527e-05 -8.704517366310580496e-05 -3.186999333663864155e-03 6.313070052343507728e-05 -1.704556005015996518e-05 -3.209997190580390035e-03 -4.186957268175569067e-05 -2.045378592508222088e-06 -3.203001678942716309e-03 -8.692493247427902579e-07 -5.704553828996425878e-05 -3.211999229602463448e-03 4.013034431635045265e-05 1.519546280752588369e-04 -3.198000523213146741e-03 -3.186927123908902604e-05 -8.504551401426070341e-05 -3.212000094971470803e-03 -6.087095666833799816e-03 1.338404172626085284e-02 2.606562374569544854e-03 1.359515139630390796e-04 -1.490983631738955180e-03 1.162026676000888110e-03 5.951899999011220181e-03 1.353003384513510633e-02 2.716050542841345894e-03 -1.907500827630497517e-04 2.438991978734935187e-02 -5.668353568064565112e-03 1.448023528892020345e-03 1.030990954907816956e-03 -5.579556529630018717e-04 -1.253981991304656349e-03 8.949949562239239119e-04 -4.250637526505240374e-04 -1.941976305138158870e-03 1.602993708451689063e-03 -5.511018063354976336e-04 1.965024459123691000e-03 1.750990422426061590e-03 -5.669448082643046595e-04 -1.504075441462901691e-05 3.439015139105904440e-03 1.066950630866788166e-03 -1.653009940382851222e-03 8.240049804363714465e-04 2.599210057143116538e-04 1.577987049155154435e-03 9.870035422496026105e-04 3.370502637372452389e-04 7.030572661450570438e-05 1.811893994342849345e-03 -7.473022832700935286e-03 -1.642707704088802647e-03 -8.831007226859377297e-04 -7.195054378704783017e-03 3.199086079203489083e-05 -1.009997118506008066e-03 2.050156224177699272e-04 1.608303637849156252e-03 -9.561072379817831370e-04 -7.474920959980781848e-03 2.198476640393019229e-05 -1.771995196596853764e-03 3.400260185395250043e-04 -8.930110899409305497e-04 5.530047114759062453e-04 2.829557957136791279e-04 8.729819398456923696e-04 5.460057531084077905e-04 4.540278078221340234e-04 4.099539067533844374e-05 -9.998430010958234054e-06 1.130018112274858323e-04 -5.900208295751255185e-05 4.400078343769638192e-05 5.199697359985243957e-05 1.699437972640513905e-05 -9.980567750737149804e-07 1.380007063039478574e-04 2.799395842954017393e-05 3.300209056428998132e-05 1.490006721791266666e-04 1.699618157985833850e-05 -9.199870894448658064e-05 9.200199652318490941e-05 -4.800578391159870506e-05 -5.399796334159448187e-05 1.409988108673002603e-04 3.399429907918011614e-05 5.200197244203471237e-05 1.410006471341643014e-04 -6.300484729485613864e-05 -1.998263513392330083e-06 1.189974628312843785e-04 2.599712522885670195e-05 -3.099902790909947589e-05 7.000149818772461721e-05 2.991308631803479487e-02 -1.837805849577702627e-02 -2.472521355943721640e-03 4.810702174510112449e-04 -1.596766983198750231e-04 2.283002187466966204e-02 -3.039394435149030127e-02 -1.751500034463462571e-02 -1.703989344438604746e-03 4.071225111301283984e-04 3.521196662932980087e-02 -2.331482651853908697e-03 -7.029059031834868554e-04 4.843160906281125341e-04 2.225596453123585700e-02 2.960983109662654431e-04 -3.726863928340954420e-04 2.213601736182096297e-02 -1.272861121665224901e-03 2.093008704997682346e-04 2.115094522026287824e-02 6.810233505751465781e-05 3.973125946765927795e-04 2.205199716066712570e-02 1.207136939091027960e-03 5.952997084091333092e-04 2.120604073530582209e-02 1.401581058687383725e-04 -9.170701282963948566e-05 2.067300702677665747e-02 1.414324840161567616e-05 1.929828906758439746e-05 2.104000032187651123e-02 -1.498432462977643102e-04 -1.027063178923983474e-04 2.070599537365455656e-02 2.715839345898639663e-05 1.192930330942688325e-04 2.066999943381517962e-02 4.153474800785628336e-06 -2.570527590234905827e-05 2.078800055290161430e-02 -2.284658553696039388e-05 -1.547052689262435417e-04 2.078700128237104955e-02 -2.885265445433002443e-05 -5.270312339144952389e-05 2.093799959177369829e-02 3.014579261980052647e-05 -5.970263083129324075e-05 2.097600209351293751e-02 5.155849120871364106e-06 -6.170611317164243544e-05 2.072900110407679616e-02 -2.785469959111339081e-05 -1.051702684562078743e-03 2.096901379605144167e-02 -1.460916047270012811e-03 -6.136800832127674256e-04 2.248394923180304858e-02 1.488073542987659956e-03 -5.916787627550362111e-04 2.274006900544421617e-02 4.641835817739417493e-04 1.136284198323001026e-03 2.007100281059849903e-02 -5.348107587678728979e-04 1.134283009822806883e-03 1.993196215895297330e-02 7.415264292827014288e-05 1.251295307159975114e-03 2.083298529831541235e-02 -1.061810840212970217e-03 -1.412717243637834266e-03 1.988497680987167879e-02 -1.384308088585906048e-05 2.135294128328527746e-03 2.074496918181941221e-02 1.064185185428575533e-03 -1.337717504693481871e-03 1.998406231897686264e-02 -1.320337225715250036e-02 1.748679654994206994e-02 -1.507978559065048171e-02 1.266750622617488983e-02 1.771481865627808072e-02 -1.209073533681895296e-02 5.398397448155933896e-04 2.077072601593042917e-04 -2.061798098126959092e-02 -9.001349479015506800e-04 1.114699824193933616e-03 -2.122205247796518646e-02 -7.920834210848051932e-05 3.382725353335689755e-03 -1.937605120303000084e-02 9.758676185809303473e-04 1.689697617989819461e-03 -2.127398423781414610e-02 -4.574233581771230939e-04 3.956246220882822517e-02 -3.795757957044194886e-02 -1.636097426183826279e-03 1.084687328554803567e-03 -2.214408202232161227e-02 2.109890593472132231e-03 1.441688662931618235e-03 -2.184293454375469887e-02 -4.599307853642123394e-05 -3.035055171989803479e-05 -2.472800146555998932e-02 -6.917230563810952855e-05 -1.296288477373054322e-03 -2.035098445715986804e-02 1.148236644132666953e-04 -1.294287217842807680e-03 -2.025197699297081808e-02 1.151831347370518930e-03 5.607098008004827300e-04 -2.040496106505721580e-02 -1.161172451019986144e-03 6.477129587523803786e-04 -2.031005648593958365e-02 1.194087380510338042e-05 2.367241342275560708e-05 -2.310499987085859117e-02 1.047828279414359702e-03 8.027110164313157326e-04 -2.032496873111885524e-02 -3.712101007747102235e-05 3.869400203700717236e-05 -2.158500208025973532e-02 -1.007169702428559795e-03 7.777119166011682789e-04 -2.037505205797733587e-02 1.385415797857618409e-05 -3.297403614186498609e-06 -2.097599940859639148e-02 -1.147640803086015692e-06 -6.429678221789403660e-05 -2.093299915460555827e-02 -1.615390788213933273e-05 -5.929458709296981880e-05 -2.077899983645029730e-02 1.584375462333994150e-05 7.570623850526543358e-05 -2.071900044743690827e-02 -5.816977482062356670e-05 6.271100347635210324e-05 -2.038700327677759119e-02 2.584672486066499051e-05 2.070518152399162103e-05 -2.079299926038261428e-02 5.883135348727331981e-05 -4.289499283509300810e-06 -2.041599756250090172e-02 -2.314849354677767158e-05 -9.296453086025251877e-06 -2.091100083026172299e-02 -3.714697040904242192e-05 1.170303329537545221e-05 -2.094800169805227652e-02