-2.037499733093803972e-02 -3.529100154096739828e-02 -9.998522815948383756e-07 2.050000079114516413e-02 -1.183499846838853564e-02 -1.883000010133533547e-02 7.499993820867872040e-05 7.860000052477443197e-04 -4.250000011991060577e-04 -2.800000210671452368e-04 1.419999769546287881e-04 -1.870999998596280895e-03 -2.049200079097734245e-02 1.183299846899657330e-02 1.883300010129317081e-02 2.036999733077573746e-02 3.529300154058724603e-02 -1.000147692803637078e-06 2.790000211538151958e-04 -1.429999770282612916e-04 1.872999998602799818e-03 -7.799993836545907598e-05 -7.840000054756339183e-04 4.240000012136678985e-04 6.389999675615380638e-04 4.600000487532548651e-04 4.259999960133291439e-04 -2.620000231146821235e-04 1.689999783149744408e-04 -1.871999998722607928e-03 7.799998985450552801e-05 1.340000058971619679e-04 -2.000000564398175203e-06 -4.700000255707699882e-04 2.729999635627799190e-04 -8.919999976783612398e-04 2.590000232013520880e-04 -1.699999785398674859e-04 1.873999998740166414e-03 -6.389999674859078065e-04 -4.610000487532548352e-04 -4.259999960123302684e-04 4.710000256243208720e-04 -2.739999634911451879e-04 8.879999976738402363e-04 -7.599998986002541015e-05 -1.340000057469003289e-04 1.000000553358464292e-06 -1.317800128359076367e-02 7.608998875202521196e-03 -1.282859999348598123e-01 1.568199938544281857e-02 7.793001181478798056e-03 -4.560000094346618009e-03 4.230001670880815254e-04 -7.859999485293004675e-04 1.950099999845021984e-02 -3.301999902103541946e-03 1.819997704751694404e-04 2.022900001804476752e-02 -1.808000098227716471e-03 2.775999883477754410e-03 2.024000000720701728e-02 1.790000109120368482e-03 6.600015602794302575e-05 2.067299999005353314e-02 3.300007583235017422e-05 4.660000225961968834e-04 2.012299999935236727e-02 8.000110890599636832e-06 -1.999979355489685082e-06 2.006199999995783925e-02 8.940001056006808069e-04 2.700008709254856165e-05 1.950099999503827897e-02 -3.399985766072435259e-05 -4.529999830134178894e-04 1.958000000064016519e-02 -4.709999156163213632e-04 2.689999833298391220e-04 1.897300000233115291e-02 -3.809998699297141773e-04 -2.510000087127298943e-04 2.012500000235378436e-02 1.092001296582477757e-03 -1.747599992195959448e-02 -4.552999988571316235e-03 -2.305999987249045084e-03 1.329999846106561228e-03 2.053300001140027919e-02 3.720000889813038138e-04 2.520000476854725407e-04 1.957299999769489610e-02 8.480002339528075516e-04 -1.584999915221748127e-03 2.066699999690238196e-02 1.317500128333627153e-02 -7.605998875434407357e-03 1.282809999348733521e-01 3.306999902075943160e-03 -1.819997701020125314e-04 -2.023400001807236503e-02 -4.220001673315319432e-04 7.889999486019340629e-04 -1.950399999845873339e-02 -1.568099938562167797e-02 -7.791001181408164188e-03 4.555000094339100788e-03 -1.094001296960628875e-03 1.748099992180833506e-02 4.552999988577361747e-03 -8.500002347405815261e-04 1.595999915078478559e-03 -2.065899999690232886e-02 -3.760000888946338194e-04 -2.530000479859958432e-04 -1.957099999767181880e-02 2.316999987189974439e-03 -1.328999845271631964e-03 -2.053000001146199766e-02 -8.910001053848296340e-04 -3.000008686765553577e-05 -1.950299999505184304e-02 3.829998700975342481e-04 2.490000088669870409e-04 -2.012200000236282621e-02 4.679999155517308132e-04 -2.679999835547321727e-04 -1.897100000231559044e-02 3.399985750946383128e-05 4.549999830134178838e-04 -1.958000000064216359e-02 1.812000098249796128e-03 -2.775999883171237879e-03 -2.023600000722909631e-02 -1.400011072829939477e-05 -2.109629410103119364e-11 -2.005999999992272298e-02 -2.500007588590102899e-05 -4.650000219871593533e-04 -2.011899999939752853e-02 -1.796000108638987850e-03 -7.200015647673016169e-05 -2.066799999001442054e-02
-2.035699733327705693e-02 -3.526000153960505423e-02 1.475880825920869601e-10 2.047600079022268704e-02 -1.182199847019267322e-02 -1.881900010121584366e-02 8.099993837097894413e-05 7.840000057035235656e-04 -4.230000012302274361e-04 -2.780000209694355332e-04 1.409999771098848073e-04 -1.866999998606321811e-03 -2.047600079015257646e-02 1.182099847019167475e-02 1.881800010121684186e-02 2.035799733327705793e-02 3.526000153968068124e-02 -1.475936024475680709e-10 2.780000209749553691e-04 -1.409999771088859318e-04 1.867999998606321944e-03 -7.999993836545908393e-05 -7.840000056268944329e-04 4.240000012247076245e-04 6.389999673992377690e-04 4.620000487512571086e-04 4.239999960113313986e-04 -2.610000232438631617e-04 1.709999783946002214e-04 -1.867999998730125689e-03 7.699998986554525680e-05 1.340000058235294616e-04 -5.588783199030874277e-13 -4.700000254084697477e-04 2.709999635647776213e-04 -8.899999976763634402e-04 2.620000231682329287e-04 -1.699999783189699669e-04 1.867999998723607032e-03 -6.389999673937179873e-04 -4.620000487502582331e-04 -4.229999960113313743e-04 4.700000254084697477e-04 -2.709999635647776213e-04 8.899999976763634402e-04 -7.699998986554525680e-05 -1.340000058235294616e-04 5.588783199030874277e-13 -1.316800128273403099e-02 7.602998876031742508e-03 -1.282129999349090055e-01 1.566899938587616725e-02 7.788001180505594971e-03 -4.550000094269865576e-03 4.220001667783930283e-04 -7.829999486199138922e-04 1.948599999845274100e-02 -3.300999902018519980e-03 1.799997705388131706e-04 2.021700001804124444e-02 -1.806000097808701989e-03 2.768999883609037788e-03 2.022000000720296925e-02 1.795000108912261742e-03 6.700015638212125754e-05 2.064899999002493478e-02 2.600007639158568931e-05 4.570000220448098205e-04 2.010099999939999812e-02 7.000110914903482293e-06 -3.999979454094105400e-06 2.003899999996535883e-02 8.900001055935130492e-04 2.600008677504438314e-05 1.948599999506135660e-02 -3.299985785227157971e-05 -4.519999829587639925e-04 1.955900000063364591e-02 -4.649999156345286581e-04 2.679999837666398668e-04 1.895600000229903312e-02 -3.829998699755207377e-04 -2.520000088859657475e-04 2.010300000236582216e-02 1.090001295464583519e-03 -1.746099992210785670e-02 -4.549999988575260598e-03 -2.301999987294851661e-03 1.328999846387107081e-03 2.051100001137920112e-02 3.740000887417255942e-04 2.540000478207510423e-04 1.955699999768185926e-02 8.380002340748212526e-04 -1.587999915997029407e-03 2.064799999696057681e-02 1.316600128253861413e-02 -7.600998876190994194e-03 1.282049999349180458e-01 3.300999901959449610e-03 -1.789997705358165199e-04 -2.021400001804224411e-02 -4.220001668595431215e-04 7.839999486189150411e-04 -1.948699999845374120e-02 -1.566599938601086900e-02 -7.786001180275707416e-03 4.553000094251307903e-03 -1.089001295296763419e-03 1.745899992218648278e-02 4.552999988571737773e-03 -8.380002340693013625e-04 1.587999915998028174e-03 -2.064699999696057581e-02 -3.750000886771350872e-04 -2.550000478983790748e-04 -1.955899999767534217e-02 2.301999987283811881e-03 -1.328999846389104832e-03 -2.051300001137919965e-02 -8.900001055990329393e-04 -2.600008677604325860e-05 -1.948699999506135760e-02 3.829998700566708309e-04 2.510000088869645987e-04 -2.010200000236482196e-02 4.649999156935993535e-04 -2.689999837696364091e-04 -1.895900000229803692e-02 3.399985785227157691e-05 4.519999830343942497e-04 -1.955900000063916580e-02 1.805000097841820981e-03 -2.768999883678674792e-03 -2.021400000719745030e-02 -8.000110909383622429e-06 3.999979379462725290e-06 -2.003799999995983794e-02 -2.500007640262540454e-05 -4.570000219711773141e-04 -2.010299999940551655e-02 -1.795000108831111595e-03 -6.800015638112237928e-05 -2.064799999002393457e-02
-2.034199733531907167e-02 -3.523300153847060134e-02 1.474783150950034583e-10 2.046300078965628336e-02 -1.181399847116887565e-02 -1.881200010115207516e-02 8.099993829534868686e-05 7.850000057035235899e-04 -4.230000012312263116e-04 -2.800000209859950895e-04 1.409999769556276664e-04 -1.869999998595281996e-03 -2.046200078951606466e-02 1.181199847124250919e-02 1.881000010114855514e-02 2.034099733539470461e-02 3.523200153839496640e-02 -1.474717963630458084e-10 2.800000209804752536e-04 -1.409999769566265418e-04 1.868999998595282080e-03 -8.099993822523827904e-05 -7.860000057045224897e-04 4.220000012322252169e-04 6.369999673881980486e-04 4.620000485979988431e-04 4.219999960223711302e-04 -2.610000232493830518e-04 1.709999783936013459e-04 -1.868999998730125605e-03 7.899998978439513094e-05 1.350000059737910978e-04 -1.000000570916907353e-06 -4.700000254250293096e-04 2.709999635617809950e-04 -8.929999976763635132e-04 2.610000232493830518e-04 -1.709999783936013459e-04 1.868999998730125605e-03 -6.389999674748680263e-04 -4.610000487512570843e-04 -4.239999960123302740e-04 4.720000254139896322e-04 -2.709999634125182313e-04 8.909999976653236843e-04 -7.899998987106508709e-05 -1.340000059757888516e-04 -9.999994300819690770e-07 -1.316700128237466468e-02 7.599998876131345595e-03 -1.281889999349115350e-01 1.566799938587064983e-02 7.788001180428965296e-03 -4.551000094264345819e-03 4.230001666917229067e-04 -7.819999485462814700e-04 1.948399999844622338e-02 -3.300999902127269795e-03 1.809997705328199151e-04 2.021100001804024618e-02 -1.808000097771710578e-03 2.767999883450784904e-03 2.021300000721500817e-02 1.795000108246501327e-03 7.500015637113357798e-05 2.063799999001694405e-02 2.700007630491571342e-05 4.580000221184423511e-04 2.009899999939347703e-02 7.000110968454318070e-06 -4.999979458089611224e-06 2.003499999996635750e-02 8.880001055824734372e-04 2.600008662178611091e-05 1.948399999507239785e-02 -3.299985787987085403e-05 -4.519999829637583698e-04 1.955400000063364438e-02 -4.639999157211986171e-04 2.689999838402722891e-04 1.895400000229251550e-02 -3.829998699976001897e-04 -2.520000088899612494e-04 2.009900000236582163e-02 1.088001295534694055e-03 -1.746199992226011438e-02 -4.550999988563221750e-03 -2.294999987123159512e-03 1.325999846906529946e-03 2.050100001134355643e-02 3.760000885794254023e-04 2.560000479700138003e-04 1.955499999766882255e-02 8.330002343276634745e-04 -1.591999916384170561e-03 2.063899999699217447e-02 1.316600128231394662e-02 -7.599998876217963807e-03 1.281779999349170196e-01 3.301999902035079350e-03 -1.799997704601862870e-04 -2.021400001804676480e-02 -4.230001666972427426e-04 7.819999485452825945e-04 -1.948499999844622091e-02 -1.566599938588720403e-02 -7.788001180280701083e-03 4.548000094253305640e-03 -1.088001295399993211e-03 1.745999992225712172e-02 4.547999988565219753e-03 -8.320002344364128312e-04 1.592999916453807481e-03 -2.064499999699868915e-02 -3.760000886015048001e-04 -2.560000479740093021e-04 -1.955899999766882308e-02 2.294999987112119732e-03 -1.325999846908527697e-03 -2.050300001134355843e-02 -8.890001055879933516e-04 -2.600008669841524363e-05 -1.948499999506687549e-02 3.839998699865604880e-04 2.520000089635937557e-04 -2.010100000237134352e-02 4.649999156991191894e-04 -2.689999837686375336e-04 -1.895800000229803592e-02 3.299985778216117188e-05 4.529999829597628922e-04 -1.955800000063464411e-02 1.808000097749631234e-03 -2.767999883454780406e-03 -2.021700000721500870e-02 -7.000110979494028814e-06 4.999979456091856913e-06 -2.003699999996635603e-02 -2.700007639710553934e-05 -4.570000221214389532e-04 -2.010199999939447577e-02 -1.796000108355250841e-03 -7.400015645275710436e-05 -2.064399999001242242e-02
-2.030099734046745055e-02 -3.516500153537076290e-02 -9.998528159225800181e-07 2.042100078795707624e-02 -1.178999847432437090e-02 -1.879100010094421347e-02 8.099993850567989678e-05 7.820000057005269990e-04 -4.260000012282297039e-04 -2.780000208292147446e-04 1.389999771078870348e-04 -1.868999998604324109e-03 -2.042600078810833525e-02 1.179199847394621879e-02 1.879100010096981452e-02 2.030599734060215336e-02 3.516300153574591220e-02 -2.000147209678944090e-06 2.790000208181750430e-04 -1.389999770342545285e-04 1.866999998598804170e-03 -8.099993859234985293e-05 -7.810000057025247256e-04 4.240000012272308340e-04 6.359999674693481717e-04 4.610000485233674370e-04 4.229999960288898658e-04 -2.600000233951236519e-04 1.729999784702304731e-04 -1.867999998737643330e-03 7.799998978439513374e-05 1.350000058981608406e-04 -1.000000565397051769e-06 -4.670000253383594160e-04 2.699999637906695476e-04 -8.909999976919241510e-04 2.600000233840839801e-04 -1.729999784722282240e-04 1.865999998737643282e-03 -6.359999674748679534e-04 -4.610000485243663125e-04 -4.239999960288898901e-04 4.670000251870989015e-04 -2.679999637906695532e-04 8.909999976899264000e-04 -7.899998986554523765e-05 -1.340000059747899761e-04 5.699180308652953147e-13 -1.316000128176690424e-02 7.596998876729679079e-03 -1.281199999349471874e-01 1.565899938591480342e-02 7.788001179756283768e-03 -4.543000094214667481e-03 4.230001666751633449e-04 -7.819999485492780964e-04 1.948099999844622038e-02 -3.297999902143829501e-03 1.809997707567140605e-04 2.020800001802368698e-02 -1.808000097566899150e-03 2.764999883446789437e-03 2.020900000721800524e-02 1.795000107348330249e-03 8.600015635914702811e-05 2.062599999000595472e-02 2.900007636398640320e-05 4.570000222667062149e-04 2.009599999938343692e-02 6.000110806154095593e-06 -2.999979535717627549e-06 2.003299999996987699e-02 8.880001056305044608e-04 2.500008661679173301e-05 1.947899999507339552e-02 -3.299985804217108100e-05 -4.499999829657561263e-04 1.955200000063165092e-02 -4.649999158244281865e-04 2.699999837596476788e-04 1.894900000229703813e-02 -3.819998699330096341e-04 -2.530000088163287674e-04 2.009700000236130241e-02 1.085001295043921303e-03 -1.745499992248001481e-02 -4.543999988553654688e-03 -2.279999986503205515e-03 1.316999848029996390e-03 2.049000001126975029e-02 3.750000886495357994e-04 2.550000478933846975e-04 1.955399999767534064e-02 8.220002346616560231e-04 -1.596999917224094191e-03 2.063099999705788473e-02 1.316100128190160652e-02 -7.598998876657045605e-03 1.281169999349436595e-01 3.298999902219459240e-03 -1.819997706810838004e-04 -2.020800001802820767e-02 -4.220001665829736098e-04 7.809999486279049557e-04 -1.947799999845074154e-02 -1.566199938590376317e-02 -7.788001179981176789e-03 4.545000094231226549e-03 -1.087001295027361899e-03 1.745499992233175146e-02 4.546999988564693999e-03 -8.220002344993558368e-04 1.594999917226092110e-03 -2.062899999705588780e-02 -3.740000887897566178e-04 -2.530000478157566949e-04 -1.955199999768285693e-02 2.280999986595395358e-03 -1.317999847951369530e-03 -2.048700001127426798e-02 -8.880001057061347181e-04 -2.400008661679173581e-05 -1.947899999507439472e-02 3.829998697983086516e-04 2.550000088949556454e-04 -2.009400000236881770e-02 4.659999156731676421e-04 -2.679999836840174813e-04 -1.894900000230455295e-02 3.099985803665123037e-05 4.499999828134967363e-04 -1.955300000062061214e-02 1.808000097496788782e-03 -2.763999883445790538e-03 -2.020800000721900344e-02 -6.000110881784353705e-06 3.999979535717624751e-06 -2.003299999997087619e-02 -2.800007636398640600e-05 -4.570000221910759577e-04 -2.009599999938895681e-02 -1.795000107440519960e-03 -8.500015636214367084e-05 -2.062899999000695692e-02
-2.023999734872218917e-02 -3.505600153075930786e-02 -2.999853261511300463e-06 2.035700078525424367e-02 -1.175199847913374271e-02 -1.876000010062889994e-02 7.999993837097894693e-05 7.840000056278933083e-04 -4.230000012247076002e-04 -2.760000210285062342e-04 1.419999772641419454e-04 -1.863999998618360394e-03 -2.035700078573010260e-02 1.175799847912974670e-02 1.875600010062290768e-02 2.024699734877022025e-02 3.505500153128372764e-02 -2.000146776128811243e-06 2.760000207905757364e-04 -1.389999772661397047e-04 1.861999998615363611e-03 -7.599993828982883786e-05 -7.850000053243734281e-04 4.240000012036270480e-04 6.369999676261284922e-04 4.590000485999965753e-04 4.239999960253677510e-04 -2.600000230705232251e-04 1.689999784742259590e-04 -1.863999998733647731e-03 7.899998972532443556e-05 1.360000059767877214e-04 1.999999428084216203e-06 -4.650000251594996192e-04 2.679999639469245534e-04 -8.859999977009660587e-04 2.600000227956014839e-04 -1.649999784692316200e-04 1.868999998729652242e-03 -6.349999669344165648e-04 -4.680000484467382576e-04 -4.219999960274176034e-04 4.590000253273197124e-04 -2.699999643977094108e-04 8.889999977360830063e-04 -7.499998954646465790e-05 -1.380000056692722824e-04 3.000000551834114911e-06 -1.314800128094938819e-02 7.593998877744122418e-03 -1.280129999350103909e-01 1.564099938650493141e-02 7.781001178405927247e-03 -4.532000094108317063e-03 4.240001666348766933e-04 -7.829999484946241397e-04 1.945999999844170297e-02 -3.291999902571658785e-03 1.859997712015057109e-04 2.019900001798557651e-02 -1.804000097210827543e-03 2.759999883745314735e-03 2.020500000720092115e-02 1.789000106114519090e-03 1.010001558873856571e-04 2.060799999002409233e-02 2.500007636233869814e-05 4.560000219502009593e-04 2.008199999940651556e-02 1.100011072887610554e-05 -2.999979171550615896e-06 2.001899999994227741e-02 8.890001056343766047e-04 2.400008667943659174e-05 1.946599999506887571e-02 -3.299985771369848709e-05 -4.549999829747460728e-04 1.954300000063664486e-02 -4.689999152966640907e-04 2.619999834431424156e-04 1.893500000232710770e-02 -3.799998701725878537e-04 -2.510000086810502116e-04 2.008100000234826557e-02 1.085001294132486097e-03 -1.744199992246702954e-02 -4.530999988566639970e-03 -2.269999985971569122e-03 1.307999848759329323e-03 2.046300001122354148e-02 3.750000887069587785e-04 2.530000478764037660e-04 1.953699999767733592e-02 8.150002346749200908e-04 -1.598999917778478035e-03 2.060599999709852165e-02 1.314900128094386757e-02 -7.593998877669491145e-03 1.280119999350048665e-01 3.289999902414878549e-03 -1.839997713537651065e-04 -2.020000001797652919e-02 -4.210001666735157426e-04 7.829999487145227833e-04 -1.946699999845826271e-02 -1.564599938649941305e-02 -7.781001178783078683e-03 4.533000094135916647e-03 -1.085001294294786391e-03 1.744399992246503314e-02 4.528999988564642171e-03 -8.130002350585913270e-04 1.603999917928739579e-03 -2.060699999711455496e-02 -3.730000888692590246e-04 -2.510000477271409538e-04 -1.953899999769037610e-02 2.269999985873859521e-03 -1.306999848763324909e-03 -2.046700001122453774e-02 -8.870001055918654226e-04 -2.500008653416933735e-05 -1.947199999507891535e-02 3.769998701449885472e-04 2.510000084491650625e-04 -2.008600000233170396e-02 4.649999157338860836e-04 -2.679999837486600543e-04 -1.893800000229903246e-02 3.499985781140815008e-05 4.539999831300020649e-04 -1.953900000064668491e-02 1.802000097524388304e-03 -2.763999883894577379e-03 -2.020300000718588257e-02 -5.000110151433338532e-06 -5.000020379662200094e-06 -2.002399999996740815e-02 -2.800007626462900761e-05 -4.570000221730961994e-04 -2.007799999938895616e-02 -1.792000106108999164e-03 -1.010001561132775535e-04 -2.060699999000753166e-02
-2.016299736402545062e-02 -3.485300152492679104e-02 6.000146110687902696e-06 2.027900078364664252e-02 -1.172599848496797513e-02 -1.869500010022432518e-02 1.139999380331142685e-04 7.900000082202985859e-04 -4.020000014183759554e-04 -2.860000188871319429e-04 1.149999765258192473e-04 -1.845999998536192177e-03 -2.029600078254753526e-02 1.171299848370323596e-02 1.871600010033114617e-02 2.015899736260503769e-02 3.487200152462726493e-02 -3.000146107587133958e-06 2.620000218107604718e-04 -1.529999783319554226e-04 1.854999998706626050e-03 -5.099994095179977128e-05 -7.490000034226294671e-04 4.350000010296710884e-04 5.839999684337576422e-04 4.500000446145671282e-04 4.469999963269100335e-04 -2.250000225157366919e-04 1.639999811532490733e-04 -1.831999998921848404e-03 7.499999339421580934e-05 8.800000568125895492e-05 8.999999498109709291e-06 -4.240000284872310265e-04 3.119999670477649240e-04 -8.859999979712306637e-04 2.780000269480980310e-04 -2.209999771228699915e-04 1.853999998686231858e-03 -6.099999700904557313e-04 -4.270000465659707224e-04 -4.319999962063679087e-04 4.460000239510632453e-04 -2.509999653699151513e-04 8.999999977888624523e-04 -9.999998840426646259e-05 -1.550000075859994826e-04 -2.299999929318859686e-05 -1.312200127925471083e-02 7.583998879880318560e-03 -1.278429999351439472e-01 1.561499938681627266e-02 7.779001176468508007e-03 -4.503000093962803742e-03 4.340001692189928545e-04 -8.159999477223394944e-04 1.947599999841946594e-02 -3.293999902540187697e-03 1.849997710422541684e-04 2.019100001799761096e-02 -1.823000095958232213e-03 2.742999882302346940e-03 2.019900000732277948e-02 1.783000104878483365e-03 1.180001554425939451e-04 2.061699999004023079e-02 3.500007614871202097e-05 4.570000226815315613e-04 2.005699999935031674e-02 1.100010999078081103e-05 8.000020845430260311e-06 2.003599999993129280e-02 8.580001061085899437e-04 1.700008432490985778e-05 1.945599999524698365e-02 -2.199986062628729426e-05 -4.169999821498054774e-04 1.953600000053797026e-02 -4.709999181540542993e-04 2.999999832948783670e-04 1.893800000230018779e-02 -3.789998697469822608e-04 -2.540000085694604022e-04 2.011700000234573765e-02 1.083001292842899555e-03 -1.742399992260530370e-02 -4.517999988573579741e-03 -2.204999984934825127e-03 1.293999853671300637e-03 2.045900001087873690e-02 3.610000887638051097e-04 2.540000468415531997e-04 1.956099999775361489e-02 7.810002363150587859e-04 -1.621999920367886558e-03 2.058799999730916847e-02 1.313100127814785696e-02 -7.568998879194652370e-03 1.278479999350792540e-01 3.299999903545460314e-03 -1.979997705844770595e-04 -2.018700001801774710e-02 -4.270001654358322675e-04 7.669999482657356617e-04 -1.946199999840916156e-02 -1.562899938721485499e-02 -7.773001177517343575e-03 4.513000094034087459e-03 -1.068001291000174107e-03 1.739999992374475363e-02 4.522999988514755064e-03 -7.950002357652153186e-04 1.613999919299074224e-03 -2.059799999722390293e-02 -3.630000888659636201e-04 -2.490000469428698738e-04 -1.951099999774757315e-02 2.224999985314624236e-03 -1.297999852144711115e-03 -2.044500001098513778e-02 -8.930001052253305326e-04 -2.700008694899467475e-05 -1.943299999504379677e-02 3.829998690248698299e-04 2.680000089329129037e-04 -2.005600000238180400e-02 4.689999156543836413e-04 -2.659999834331536498e-04 -1.892500000232311130e-02 1.999985956746369814e-05 4.309999819985449237e-04 -1.953600000054091582e-02 1.807000096987232060e-03 -2.754999883490455870e-03 -2.017700000722247311e-02 6.999887762390826895e-06 2.199998051990979684e-05 -2.003200000006061590e-02 -3.800007589199754952e-05 -4.620000229303976606e-04 -2.007899999932876572e-02 -1.814000103999096301e-03 -1.270001577511723650e-04 -2.058099998986012355e-02
