-4.690999998853256567e-03 -3.100035499829479301e-05 -2.169999740753927474e-04 -2.007599925987696779e-02 -1.102900153536389392e-02 -1.702999987816677246e-02 1.666300091572221406e-02 -1.317199875433660260e-02 -1.458000007882015100e-02 -2.891999823954584381e-03 -2.157000216386326021e-03 2.339000018117998354e-03 -3.217800108116055519e-02 1.619199759232733613e-02 2.598700016144410083e-02 -2.890499883557875668e-02 -1.707700220909568259e-02 -2.302899982339076321e-02 -2.079996755066488255e-03 -4.091800013011340220e-02 2.722800005235332527e-02 -4.274999952568529944e-03 -4.560003209769837866e-04 2.345000024052869801e-03 -1.049000120643192504e-03 1.623999921058411500e-03 3.950000041681530250e-04 -3.750000177348824181e-04 2.179999714129066005e-04 -2.259999981478092541e-04 -8.379997215068976006e-04 -3.665000063141411225e-03 2.370000082865211691e-04 -1.128999819595304056e-03 -2.322000084519528808e-03 8.680000085513079472e-04 -1.102999975363811109e-03 -3.980000844090611457e-04 -9.899999935140465102e-04 -6.699961708697124360e-05 -5.306000008393472502e-03 -3.329999994330130973e-03 1.271000040148788151e-03 -5.509999041496309660e-04 -2.760000064653553645e-04 2.200000846908113108e-04 -1.098999983076660251e-03 2.849999998833970265e-04 1.091410002000581109e-01 -1.284991727021978294e-03 1.863699939884101014e-02 1.256999969651748832e-03 2.623000125474037741e-03 3.044099999044148908e-02 -6.742999838477477942e-03 -1.270004824837370151e-04 2.752200003734724468e-02 -5.949999646973181712e-03 -3.421000432936209014e-03 1.708300003626029781e-02 -2.141000294234650641e-03 5.276999857052266062e-03 1.899800000654694107e-02 -3.138999560188374810e-03 -4.224000215624854233e-03 2.180300002154608036e-02 -8.060000540491859926e-04 1.993999956551319695e-03 1.752900000245724219e-02 2.039999730436619307e-04 1.891000036430952758e-03 2.102599999698507444e-02 1.317000017357305075e-03 1.191000119046186755e-03 1.946299999154068802e-02 6.550000330892244860e-04 1.017000069444433386e-03 1.992899999536863753e-02 2.522000230261254878e-03 -1.533999788586730721e-03 2.069699998761120180e-02 -5.849997898936226248e-04 -1.304000024069380424e-03 2.019700000453164904e-02 -1.489998033432047848e-04 -9.139999881908539899e-04 2.310400000173543078e-02 -7.819991219205134174e-04 -1.121400005372092529e-02 5.428000015517927754e-03 -2.786999761832154292e-03 -1.593000189484469363e-03 2.132100001697504604e-02 -2.168000096875268446e-03 2.631999854524802798e-03 1.851200000933800327e-02 -1.102400064666676609e-02 6.130999133140252119e-03 -3.314899994527322619e-02 1.370991685111184154e-03 1.085370000844693705e-01 -1.924100011598278009e-02 4.082999940957554412e-03 -6.879997113020558950e-04 -2.012300002185034298e-02 -8.367999548956854897e-03 -6.466000639747249493e-03 -6.880999947351113845e-03 5.192999833811062088e-03 7.220003725556294527e-04 -2.021500002938579968e-02 6.903000077668052827e-03 -2.526999498454241249e-03 -2.055300003557939889e-02 -7.321999777208399243e-03 -4.590000576267431673e-03 -2.252799995499877445e-02 7.159999788710624813e-04 -1.335999967956873983e-03 -2.213300000261771844e-02 -3.109999369461141270e-04 -2.281000043328732570e-03 -1.982999999600488714e-02 -1.480001983374667227e-04 1.099999967970146687e-03 -2.086000000028182672e-02 9.550001564544493421e-04 -3.510999947512898761e-03 -1.976200000176440638e-02 7.509997118052988635e-04 2.313000036302361676e-03 -2.051900000645581063e-02 5.250003384305719457e-04 -5.756999977842367465e-03 -1.756799999714739324e-02 -1.869997333265575759e-04 -4.805000031647162564e-03 -1.752399999416818718e-02 1.262999762693338499e-03 1.650000075159903899e-03 -2.038400000861972233e-02 -2.717000163690233040e-03 6.739997741155218970e-04 -2.041999998567579563e-02
-4.684999998945445915e-03 -3.000035454750987860e-05 -2.199999741095107924e-04 -2.005299926040473441e-02 -1.102100153361041356e-02 -1.701599987830171995e-02 1.664500091488640976e-02 -1.315999875568496340e-02 -1.456700007873278080e-02 -2.885999824354815082e-03 -2.152000215936539750e-03 2.335000018079885081e-03 -3.214700108022316982e-02 1.617799759464990175e-02 2.596500016128696839e-02 -2.888199883654926636e-02 -1.706300220734020476e-02 -2.301299982353170390e-02 -2.078996757748314671e-03 -4.088400013005774603e-02 2.720800005231384378e-02 -4.262999952520499063e-03 -4.570003200744150468e-04 2.340000023987630524e-03 -1.047000120357231097e-03 1.619999921206675400e-03 3.920000041611087821e-04 -3.760000178270722073e-04 2.189999713342796869e-04 -2.289999981432882853e-04 -8.349997222687200989e-04 -3.655000062915519411e-03 2.360000082599728283e-04 -1.124999820211385797e-03 -2.314000084219005986e-03 8.660000085212375513e-04 -1.099999975504031878e-03 -3.960000841801726286e-04 -9.879999935326038828e-04 -6.499961782119438342e-05 -5.296000008238216025e-03 -3.325999994351159627e-03 1.268000040143268297e-03 -5.509999043775206133e-04 -2.770000064487958269e-04 2.190000844473609799e-04 -1.095999983155287062e-03 2.819999998859202715e-04 1.090610001999162415e-01 -1.283991733084385465e-03 1.862499939928159709e-02 1.257999969912335439e-03 2.617000125514707537e-03 3.040599999044196061e-02 -6.739999838702144183e-03 -1.260004822838159378e-04 2.749500003732968309e-02 -5.943999647310469273e-03 -3.418000432502405015e-03 1.706300003622417821e-02 -2.143000293885745974e-03 5.270999856882026442e-03 1.897900000656397093e-02 -3.137999560558782375e-03 -4.221000215575193906e-03 2.177700002153756462e-02 -8.030000531598302732e-04 1.980999956761229919e-03 1.751200000245366900e-02 2.019999730679657916e-04 1.889000036256717951e-03 2.100299999699811390e-02 1.315000017549428904e-03 1.187000118874948634e-03 1.944299999155572195e-02 6.540000329953868721e-04 1.017000069351822354e-03 1.991199999537415777e-02 2.519000229890848083e-03 -1.530999788839592290e-03 2.067099998762476215e-02 -5.829997899984998375e-04 -1.304000023937098652e-03 2.017800000452061107e-02 -1.559998034055708931e-04 -9.149999887452377016e-04 2.307900000177506850e-02 -7.799991224018941460e-04 -1.120800005357465781e-02 5.423000015500894708e-03 -2.781999761959111101e-03 -1.593000189129292104e-03 2.129800001694744788e-02 -2.165000096904515486e-03 2.630999854732714912e-03 1.849300000932244115e-02 -1.101800064620416832e-02 6.126999133622999978e-03 -3.311999994530234748e-02 1.369991691222322960e-03 1.084570000844047449e-01 -1.923000011589734784e-02 4.076999941056911637e-03 -6.879997117378576802e-04 -2.010500002181722645e-02 -8.356999549447628392e-03 -6.459000638908325015e-03 -6.873999947418824377e-03 5.192999834045120520e-03 7.200003725706126444e-04 -2.020000002938380015e-02 6.887000077778449372e-03 -2.526999499644347856e-03 -2.053300003549108146e-02 -7.316999777627414096e-03 -4.583000575869303900e-03 -2.250799995503336565e-02 7.099999787341371420e-04 -1.331999968380689382e-03 -2.210300000258859365e-02 -3.119999369814576242e-04 -2.279000043383386503e-03 -1.980899999600136546e-02 -1.470001977622483586e-04 1.093999968067752059e-03 -2.083800000028135022e-02 9.550001564947360180e-04 -3.509999947491922352e-03 -1.974100000176540887e-02 7.479997119858063093e-04 2.312000036094449297e-03 -2.050000000643825357e-02 5.240003383455497628e-04 -5.754999977906010734e-03 -1.755599999714387016e-02 -1.889997334706505327e-04 -4.802000031783440308e-03 -1.750899999416014388e-02 1.262999762803735651e-03 1.650000075179881408e-03 -2.036400000861972315e-02 -2.710000163493166223e-03 6.729997746669089337e-04 -2.039799998571343448e-02
-4.685999998939926157e-03 -3.000035462214126040e-05 -2.189999741039909322e-04 -2.004099926112791474e-02 -1.101100153269685827e-02 -1.700999987837794811e-02 1.663500091423885871e-02 -1.315099875643527261e-02 -1.456100007868657044e-02 -2.886999824424925365e-03 -2.151000216011171324e-03 2.336000018084405903e-03 -3.212100107914943325e-02 1.616299759660530175e-02 2.595400016115843866e-02 -2.885899883748829775e-02 -1.705000220559271806e-02 -2.300499982367164645e-02 -2.077996760212641458e-03 -4.085200012999010144e-02 2.720000005227635881e-02 -4.264999952509458681e-03 -4.570003202236778105e-04 2.342000023998670136e-03 -1.048000120270561192e-03 1.618999921133042978e-03 3.940000041676274879e-04 -3.770000177459221385e-04 2.179999712596483350e-04 -2.279999981367695767e-04 -8.359997220363094613e-04 -3.658000062990150649e-03 2.370000082684893148e-04 -1.124999819978975135e-03 -2.317000084218006749e-03 8.670000085242342020e-04 -1.101999975433921343e-03 -3.970000843324319887e-04 -9.889999935205654683e-04 -6.499961789130479124e-05 -5.295000008237217559e-03 -3.324999994352158261e-03 1.268000040067638039e-03 -5.499999043775206974e-04 -2.770000064497947024e-04 2.200000844584006760e-04 -1.095999983077659053e-03 2.839999998804004300e-04 1.090360001999217537e-01 -1.283991734974143130e-03 1.862599939941959534e-02 1.249999970489778286e-03 2.609000124904671449e-03 3.040099999049411181e-02 -6.736999838399622756e-03 -1.300004820569251548e-04 2.749500003731712022e-02 -5.943999647559438521e-03 -3.415000432506400552e-03 1.705900003622118702e-02 -2.147000293664375406e-03 5.267999856578507549e-03 1.897800000658904709e-02 -3.140999560272820981e-03 -4.225000215805080860e-03 2.177400002155812156e-02 -8.020000519111071188e-04 1.964999956843852241e-03 1.751900000246413291e-02 2.019999731916270183e-04 1.887000036251723634e-03 2.099799999700010730e-02 1.312000017684130217e-03 1.185000118645061296e-03 1.943999999157428049e-02 6.540000330969687010e-04 1.015000069342832534e-03 1.990299999537615411e-02 2.518000229868768824e-03 -1.530999788919218049e-03 2.066699998763028498e-02 -5.809997900205794577e-04 -1.304000023789833639e-03 2.017400000450957076e-02 -1.639998033796193262e-04 -9.159999893592696632e-04 2.307000000182022822e-02 -7.819991227264946757e-04 -1.120400005372991677e-02 5.419000015507938889e-03 -2.775999761911080149e-03 -1.594000188680504962e-03 2.129300001691532621e-02 -2.165000096856484462e-03 2.629999854727720510e-03 1.848800000932344229e-02 -1.102100064590164769e-02 6.122999133396109760e-03 -3.311999994528178753e-02 1.366991692281146597e-03 1.084430000841778430e-01 -1.923000011586680630e-02 4.076999941180573135e-03 -6.899997117428519977e-04 -2.011000002181522611e-02 -8.356999549728068993e-03 -6.455000638904328548e-03 -6.869999947422820649e-03 5.184999834229500615e-03 7.180003719715637904e-04 -2.019400002933764357e-02 6.876000078708092295e-03 -2.538999500472284825e-03 -2.052900003541837867e-02 -7.316999777232702923e-03 -4.588000575866306961e-03 -2.250499995502837358e-02 6.989999783189945618e-04 -1.325999969205629830e-03 -2.209600000253387000e-02 -3.139999368782280735e-04 -2.280000043529652014e-03 -1.980399999598932495e-02 -1.470001975557892954e-04 1.091999968077740982e-03 -2.082800000027935222e-02 9.550001564743043365e-04 -3.508999947481933682e-03 -1.973100000176640154e-02 7.469997121481065797e-04 2.310000036020817393e-03 -2.049800000643073675e-02 5.210003383455496899e-04 -5.754999978132901289e-03 -1.755599999712731049e-02 -1.889997334651306697e-04 -4.802000031782441107e-03 -1.750799999416014288e-02 1.263999762836854690e-03 1.650000075261505135e-03 -2.035800000862524398e-02 -2.711000163644426437e-03 6.749997745912787251e-04 -2.039799998570991299e-02
-4.681999999026596748e-03 -2.900035432161798167e-05 -2.209999741270692270e-04 -2.000799926229771333e-02 -1.099400153018008364e-02 -1.698899987857708377e-02 1.660600091280904633e-02 -1.313099875861356743e-02 -1.454600007854647305e-02 -2.883999824581705805e-03 -2.149000215785279271e-03 2.335000018065848566e-03 -3.206600107720842391e-02 1.613499760073299968e-02 2.592200016088281461e-02 -2.880999883945690662e-02 -1.702200220185986351e-02 -2.297799982397008556e-02 -2.076996765699954187e-03 -4.078200012994943890e-02 2.716500005220092231e-02 -4.260999952526018687e-03 -4.570003199241534078e-04 2.339000023976590611e-03 -1.048000120049190310e-03 1.615999921132044029e-03 3.930000041706241442e-04 -3.760000179082223547e-04 2.199999713332808087e-04 -2.299999981442871579e-04 -8.349997222687200989e-04 -3.655000062915519411e-03 2.360000082599728283e-04 -1.123999820216905554e-03 -2.314000084144374712e-03 8.650000085157177453e-04 -1.101999975498511820e-03 -3.960000843304342676e-04 -9.869999935215641867e-04 -6.299961840415704937e-05 -5.288000008082960682e-03 -3.321999994370190314e-03 1.267000040289008788e-03 -5.529999044541497946e-04 -2.780000064412782102e-04 2.190000844473609799e-04 -1.095999983155287062e-03 2.819999998859202715e-04 1.089860001997003947e-01 -1.280991738754657045e-03 1.862699939969259325e-02 1.245999970748140314e-03 2.605000124594159319e-03 3.039299999052018711e-02 -6.736999838130221067e-03 -1.340004820629183964e-04 2.748900003732111449e-02 -5.948999647666541879e-03 -3.413000432876560786e-03 1.706700003624678566e-02 -2.150000293583225006e-03 5.266999856352615195e-03 1.897900000660660697e-02 -3.141999560311459477e-03 -4.225000215887704004e-03 2.176700002156364139e-02 -8.030000500297427212e-04 1.940999956780208339e-03 1.753100000249362481e-02 1.989999733428875683e-04 1.885000036024832813e-03 2.099799999701866537e-02 1.311000017796751802e-03 1.183000118562439187e-03 1.943299999158179872e-02 6.560000332482292642e-04 1.013000069494093000e-03 1.990299999536711273e-02 2.519000230182329332e-03 -1.534999788841589921e-03 2.066899998762876042e-02 -5.839997897346178466e-04 -1.308000024019720809e-03 2.017100000453012770e-02 -1.779998030456268233e-04 -9.209999904260842817e-04 2.306200000190249816e-02 -7.819991226563843085e-04 -1.120500005373091350e-02 5.418000015508937957e-03 -2.765999761372276745e-03 -1.602000187936188655e-03 2.128100001686812279e-02 -2.168000096786374276e-03 2.628999854499831056e-03 1.848700000934100016e-02 -1.102200064549589860e-02 6.117999133325473758e-03 -3.311499994527127705e-02 1.361991696392779927e-03 1.083890000838046985e-01 -1.922500011578526583e-02 4.072999941516213841e-03 -6.939997120393796544e-04 -2.010400002178915069e-02 -8.361999549722548900e-03 -6.455000639281480851e-03 -6.868999947395221066e-03 5.180999834257099534e-03 7.180003716740371387e-04 -2.018900002931556248e-02 6.858000079728277312e-03 -2.552999501840621816e-03 -2.053600003530503537e-02 -7.320999776961653778e-03 -4.591000576160836517e-03 -2.249699995500329536e-02 6.789999776454899629e-04 -1.315999970703251708e-03 -2.208100000243345962e-02 -3.119999369372987745e-04 -2.279000043375395499e-03 -1.980099999600136440e-02 -1.470001974155684798e-04 1.089999968075743182e-03 -2.083000000027735929e-02 9.530001566956751696e-04 -3.511999947634192928e-03 -1.973200000175236862e-02 7.439997121111152634e-04 2.311000035800918773e-03 -2.049100000641517622e-02 5.200003383621092275e-04 -5.754999978205535896e-03 -1.755299999712179107e-02 -1.889997331570898048e-04 -4.806000031781443305e-03 -1.750699999415614855e-02 1.262999763085825107e-03 1.647000075189870415e-03 -2.035400000861672595e-02 -2.709000163460047184e-03 6.729997747485325522e-04 -2.039199998571895531e-02
-4.672999998869816450e-03 -3.100035363994678862e-05 -2.199999741747501645e-04 -1.995199926393620080e-02 -1.097000152591282550e-02 -1.695699987891016725e-02 1.655800091083491771e-02 -1.310299876221784725e-02 -1.452000007830948902e-02 -2.875999824749526229e-03 -2.147000215183233682e-03 2.332000018019691947e-03 -3.197300107432450578e-02 1.609299760771366883e-02 2.586900016041141989e-02 -2.874599884295855889e-02 -1.697300219698257007e-02 -2.294099982437230317e-02 -2.061996773706793046e-03 -4.068000012886792416e-02 2.711200005201623922e-02 -4.259999952699358196e-03 -4.550003198525186580e-04 2.335000023969073090e-03 -1.045000120032630458e-03 1.615999921361931536e-03 3.960000041540645468e-04 -3.700000179838526288e-04 2.209999717870623495e-04 -2.299999981784051843e-04 -8.339997230305424289e-04 -3.645000062840887678e-03 2.350000082444642134e-04 -1.122999820513906994e-03 -2.310000084067745374e-03 8.660000085062023777e-04 -1.098999975725402627e-03 -3.930000841035435314e-04 -9.869999935411203750e-04 -6.199961918641119644e-05 -5.277000007998339411e-03 -3.312999994386697615e-03 1.267000040062118017e-03 -5.499999044541498301e-04 -2.780000064442748366e-04 2.180000847719614366e-04 -1.099999983226921914e-03 2.859999998954356523e-04 1.089030001988243040e-01 -1.269991745039959459e-03 1.861899940013975185e-02 1.242999971063925508e-03 2.599000124342296190e-03 3.036799999054273780e-02 -6.737999837986128129e-03 -1.370004821535318043e-04 2.747400003732963086e-02 -5.950999648040820010e-03 -3.409000433040806910e-03 1.705400003625382951e-02 -2.148000293487163561e-03 5.264999856493887340e-03 1.896900000659756599e-02 -3.143999560517919158e-03 -4.223000216048953225e-03 2.175700002157267970e-02 -8.040000474472743268e-04 1.906999956706575874e-03 1.753300000253310564e-02 1.909999734058304599e-04 1.883000035403808699e-03 2.098199999706482424e-02 1.309000017892813584e-03 1.181000118401189869e-03 1.942299999159483384e-02 6.620000336578519412e-04 1.007000069939883611e-03 1.989499999533998753e-02 2.516000230684141935e-03 -1.541999789073475024e-03 2.066399998765230950e-02 -5.859997894006254045e-04 -1.313000024178972340e-03 2.016300000454615896e-02 -1.949998023351307691e-04 -9.319999917337739659e-04 2.304000000200732631e-02 -7.819991226784637605e-04 -1.120500005373491030e-02 5.414000015508938293e-03 -2.751999760364779585e-03 -1.617000186900339337e-03 2.125800001680582321e-02 -2.172000096479981008e-03 2.623999854184324958e-03 1.847400000936807660e-02 -1.102400064469930864e-02 6.108999133195190494e-03 -3.309399994525125122e-02 1.356991702848951015e-03 1.083040000834315231e-01 -1.922000011567276401e-02 4.063999942111863779e-03 -7.009997127080654176e-04 -2.009200002173247915e-02 -8.357999549916322185e-03 -6.452000638972967689e-03 -6.862999947420297432e-03 5.173999834301257726e-03 7.180003711526163415e-04 -2.018100002927692566e-02 6.830000080652399823e-03 -2.564999503955272143e-03 -2.053300003513849545e-02 -7.320999777019076594e-03 -4.589000576143855911e-03 -2.247999995500529410e-02 6.529999760660700099e-04 -1.292999972640671534e-03 -2.205200000231291591e-02 -3.119999373414016324e-04 -2.273000043366404932e-03 -1.979199999600736101e-02 -1.480001972311888387e-04 1.087999968006106129e-03 -2.082400000026983847e-02 9.480001567232744985e-04 -3.511999948007350162e-03 -1.972700000172477111e-02 7.429997121017232293e-04 2.312000035737274937e-03 -2.047900000641065740e-02 5.230003384763785715e-04 -5.755999977971651936e-03 -1.754599999713735148e-02 -1.919997326812288279e-04 -4.812000032004337853e-03 -1.750299999413359661e-02 1.260999763908365878e-03 1.637000075050596380e-03 -2.034200000859569604e-02 -2.709000163150358711e-03 6.699997747635157196e-04 -2.037699998571595658e-02
-4.668999998594895208e-03 -3.500035334242012567e-05 -2.249999741928340735e-04 -1.987399926623715715e-02 -1.093600151996471960e-02 -1.690799987937467719e-02 1.649800090711741815e-02 -1.305099876671670864e-02 -1.448100007803023934e-02 -2.853999825188395772e-03 -2.142000213530355530e-03 2.321000017893261238e-03 -3.186400106967127166e-02 1.602599761588245283e-02 2.579400015987668229e-02 -2.864099884723528971e-02 -1.691200218898046212e-02 -2.287999982501282004e-02 -2.069996785426681755e-03 -4.053000012954088849e-02 2.704400005191056472e-02 -4.245999952845098263e-03 -4.530003187926961864e-04 2.336000023889797227e-03 -1.049000119648959596e-03 1.610999921060409261e-03 3.970000041811384004e-04 -3.710000182107434249e-04 2.239999717114320838e-04 -2.299999981758819477e-04 -8.289997234788041777e-04 -3.639000062461737912e-03 2.360000082108716700e-04 -1.120999820773916841e-03 -2.307000083922477931e-03 8.600000084921660421e-04 -1.095999975524463571e-03 -3.950000838676628748e-04 -9.779999935556821841e-04 -6.499962074704728919e-05 -5.256000008220236379e-03 -3.307999994391114858e-03 1.264000040667160110e-03 -5.579999046810405795e-04 -2.780000064197242168e-04 2.260000837020980594e-04 -1.085999982623877484e-03 2.839999998372925516e-04 1.087700001987525478e-01 -1.269991755111769382e-03 1.860599940087389464e-02 1.237999970850299069e-03 2.600000123939173041e-03 3.034299999056933733e-02 -6.738999837583673283e-03 -1.440004822521362047e-04 2.745100003734214297e-02 -5.942999647550047462e-03 -3.416000432442757150e-03 1.704700003621666127e-02 -2.153000292706556875e-03 5.252999856092762168e-03 1.894600000663715020e-02 -3.135999560532253851e-03 -4.225000215473877045e-03 2.172700002153052021e-02 -8.060000437932946958e-04 1.859999956573295385e-03 1.755100000259109463e-02 1.819999737657744662e-04 1.877000034706155463e-03 2.096499999712049533e-02 1.298000018127448436e-03 1.176000117543286264e-03 1.939699999166055039e-02 6.700000336639483876e-04 1.004000070504970470e-03 1.985499999529882764e-02 2.523000230892825328e-03 -1.545999788561044311e-03 2.064699998761766742e-02 -5.939997893708016908e-04 -1.315000024805989707e-03 2.014100000459231529e-02 -2.329998016207625094e-04 -9.439999946426843496e-04 2.300500000222906530e-02 -7.869991232189152463e-04 -1.119800005411505754e-02 5.412000015529544808e-03 -2.716999759698442065e-03 -1.628000184283246755e-03 2.122800001662361949e-02 -2.175000096588730353e-03 2.624999853951440632e-03 1.846800000938363454e-02 -1.102300064353947846e-02 6.095999133302784992e-03 -3.306199994524378766e-02 1.351991712450121555e-03 1.081780000830663557e-01 -1.920700011551930084e-02 4.056999942421551757e-03 -7.039997132224940510e-04 -2.007700002169084466e-02 -8.362999549921841871e-03 -6.452000639352116658e-03 -6.863999947392698114e-03 5.169999834865436975e-03 7.120003708700728927e-04 -2.016100002924885171e-02 6.796000082218555706e-03 -2.585999506530696577e-03 -2.053700003492984344e-02 -7.325999776373747982e-03 -4.596000576501030332e-03 -2.245899995497070353e-02 6.049999754659710722e-04 -1.281999976228970738e-03 -2.201000000205895202e-02 -3.169999369765144886e-04 -2.276000043719584622e-03 -1.976699999597676324e-02 -1.390001967260808913e-04 1.082999968709752675e-03 -2.080100000031452276e-02 9.460001567580413441e-04 -3.510999948138633035e-03 -1.970700000171472788e-02 7.349997121364901459e-04 2.313000035152210521e-03 -2.045900000636749483e-02 5.220003378729841511e-04 -5.746999978033298477e-03 -1.753199999714082080e-02 -1.919997326889730943e-04 -4.810000031978367042e-03 -1.747699999413558983e-02 1.268999763991163557e-03 1.637000075670621462e-03 -2.032700000863985751e-02 -2.716000163106199652e-03 6.699997742420949224e-04 -2.036899998567731976e-02
