-1.412879964909999899e+03
-1.412879966400000058e+03
-1.412879969079999910e+03
-1.412879973329999984e+03
-1.412879979060000096e+03
