-1.412881107389999897e+03
-1.412881108840000024e+03
-1.412881111559999908e+03
-1.412881115839999893e+03
-1.412881121670000084e+03
