-3.044998279545114636e-03 1.610070456953345830e-01 3.053593283004934003e-03 -1.048616002759741525e-02 1.087064226857589137e-03 3.950557586253458479e-03 -2.433170075069611242e-03 2.772061876824584437e-03 4.229861621476701389e-03 2.149053132758200427e-04 -4.118968324600545856e-03 2.246067151102833833e-03 -3.575732056146969234e-02 9.388490347948724724e-03 3.260941085408890910e-02 -3.206394770903978064e-02 -1.247634466305140230e-02 -2.608212880806918058e-02 3.118870111056840089e-03 -5.283958660600240366e-03 3.088201920766193813e-03 -5.661221348595062240e-04 1.178043288354655837e-03 3.021960247783657058e-03 -3.810126375244346063e-03 -4.288954185232473661e-03 3.020905659176439505e-03 -8.712302858052672482e-05 -6.595711493068395336e-05 3.019997390210954653e-03 1.587529321025887106e-05 2.704341405653713608e-05 3.063000265886644483e-03 -5.912708104845125338e-05 6.304430926754604942e-05 3.121996701368479499e-03 -6.312575841389744184e-05 3.604384453500559534e-05 3.088996921315365681e-03 -7.124416214789117576e-06 8.604334699272867470e-05 3.056998492824601447e-03 -4.112684704970231031e-05 -2.099558607546122039e-04 3.111001304883451776e-03 9.873947076794436977e-06 2.404388662206349386e-05 3.096000064064150913e-03 -3.125023921394258681e-06 3.804354235471808337e-05 3.070999336227638217e-03 -3.112575608971777621e-05 3.904381947882617240e-05 3.088998181849310701e-03 -1.812573812827240514e-05 -4.195621904754884691e-05 3.086999859621075270e-03 -1.812307792794106995e-05 2.704287356659190993e-05 3.022998881414890558e-03 -2.122454591435505942e-06 4.304264837010998734e-05 3.007999306118236578e-03 -7.112461744016841615e-05 3.704345382060386259e-05 3.060996581396821601e-03 4.186943173845328531e-05 3.004543530086695440e-05 3.207001281961620841e-03 7.880824982547723892e-06 1.904149214114348051e-05 2.927000053668368275e-03 2.187190867412060530e-05 2.104458611618021822e-05 3.146000595201175164e-03 -1.123531431239358493e-06 -1.359570263055475835e-04 3.031001884637367447e-03 -1.512685321494802116e-05 4.204418975106005159e-05 3.115998790824538699e-03 3.370959618015580855e-04 6.019664891394802247e-04 -2.344994809906872455e-03 2.001517136805869334e-04 -5.350531247887740016e-04 -3.735984267253342206e-03 7.911451641441520622e-05 1.679601126991920582e-04 -2.808999162305782053e-03 -6.958779115420352318e-04 -5.110421017916134045e-04 -3.008021094079013288e-03 1.345124324210527191e-03 -2.020443946298911757e-04 -3.056942363705245167e-03 -9.078515497200989690e-04 2.879491037563537865e-04 -3.640041054344954428e-03 -3.798790870735836538e-04 -1.920418530277198037e-04 -2.973012749029142667e-03 -2.348814202193514656e-04 1.039959181715062290e-03 -2.892024311585619702e-03 -1.938755355115902952e-04 -1.012043458895261865e-03 -3.075993549089043287e-03 4.633069441535574672e-03 1.423972581894634602e-03 -1.677831527872087908e-03 1.755074179202858629e-03 -3.800273053076646873e-04 -1.828923145655937275e-03 -4.167973843127653795e-03 9.489944164880010843e-04 -6.241831786249150407e-04 -4.168041622608684133e-05 -2.590111943080838659e-03 -7.897964982526399155e-03 1.499152195593392517e-03 -9.060544112414914853e-04 -3.754926110899833164e-03 -4.768430923869240810e-04 -2.378054905495225347e-03 -3.898985705499953807e-03 -2.099870964077737556e-03 3.895672903228512688e-05 -3.168086063775152339e-03 -8.719167348207875834e-04 1.078971986806057408e-03 -2.024050804507447968e-03 -8.428817042929872888e-04 -1.246040866571248261e-03 -2.929016659461417763e-03 1.412684775574432905e-05 2.955825205194951822e-06 -3.114999469545676018e-03 2.812152739343268791e-05 -3.104234263992642647e-05 -2.984998417530649803e-03 1.831247598827062954e-04 -1.104358405218051605e-05 -3.063992389280558067e-03 4.312830349547680812e-05 -1.004470790101609819e-05 -3.150998104296602945e-03 4.124758464021956766e-06 -1.304344389566698086e-05 -3.063999649957380861e-03 6.212387509461230785e-05 2.956822600440981907e-06 -3.041997515012682951e-03 4.612628309747645602e-05 -4.204401553480579509e-05 -3.101997528491168797e-03 2.112510926601251314e-05 -3.304358480474367483e-05 -3.072998674139276482e-03 3.712880622987478662e-05 -4.404488751095128715e-05 -3.163997866565666870e-03 7.099776891422032461e-05 1.100072418490897989e-05 5.500273517390323342e-05 -1.269962356301388698e-04 -1.330012474366397770e-04 -9.500328581723882547e-05 -1.050004055291848219e-04 5.400023816490154212e-05 1.099495870117994260e-05 4.200852702580816207e-05 -8.300302439229283711e-05 -2.109971127737400663e-04 1.199926646892368506e-04 4.500247221688551520e-05 1.810042483345206620e-04 2.059988314869403781e-04 6.800026402979759076e-05 3.000742437952630442e-05 3.801001181011119483e-05 -7.003517490807597286e-06 -2.459983531346320897e-04 3.779994977156573817e-04 -1.700012583728879048e-05 1.201563349254584639e-05 1.399977130983675440e-05 -3.199994006974339974e-05 5.001023775698591707e-06 1.939719951551444911e-04 -1.024990681030620064e-03 6.680224314316987383e-04 -5.270109840690451750e-04 -1.753996241224496828e-03 2.360034076891977868e-04 9.167236537769961205e-04 -2.392291102686229520e-02 6.326376509775260074e-03 -1.482647660034201384e-02 -2.174282837850857741e-02 1.128570452928096338e-02 -8.767401538845092865e-03 9.899801201212723306e-03 -1.450649738679616121e-02 8.203090390958924644e-03 -1.335904153996983999e-02 -2.476476563813516732e-03 -4.029493276257222812e-04 -3.982018412918792404e-03 -1.320959953420873956e-03 3.701972636377149316e-03 -1.761993853040697651e-03 6.381757292169791670e-04 1.611956021123390039e-03 -1.245986290312288674e-03 1.056083306523624386e-03 9.599966793503224858e-05 9.600006660064476071e-05 1.000254812711836199e-05 -1.140022645510566497e-04 1.240009115611922304e-04 5.799359972638606399e-05 -2.500002427004309585e-05 -3.099998042197095016e-05 -5.785106104324571886e-10 1.997196503986993532e-06 -4.399903747147190591e-05 6.800070520008209905e-05 -1.500004386767427587e-05 -5.599998824941221880e-05 1.831419874138016933e-10 -1.149996702200314658e-04 4.999976621690969020e-06 -8.004753779258960992e-06 -1.199832962705192732e-05 5.299944227879633521e-05 -4.000124003449322997e-05 6.099984957824101988e-05 -3.600000522575021270e-05 3.002994368614138474e-06 -2.500058576747621940e-05 -7.199979610649795772e-05 1.300000276560694296e-05 1.175638106687768372e-02 -2.339480009502351021e-02 1.474981043011224652e-02 -1.541734238166616970e-03 5.662258391234170803e-03 1.813985695780876220e-02 -1.429750609012327492e-02 -1.769881742252934695e-02 1.208766873499020518e-02 -1.132150180423816162e-02 -3.927247895966685248e-02 3.612509580968826378e-02 1.277131652044982135e-01 -1.758809864989418267e-03 2.046922554244214390e-02 -9.433975945180543901e-03 -1.138653126572464419e-03 2.394463200642477432e-02 -1.088678722443686513e-04 -1.700698211779605624e-03 2.128001969874188451e-02 -2.457673285502285938e-03 3.730237359915329707e-03 1.660584705037416314e-02 -1.538983438957348179e-03 -9.446658967222486269e-03 2.396907128638091355e-02 -8.598635834195858690e-07 4.929939249974535527e-05 2.111699928565926102e-02 -6.686013447023650717e-05 6.729954342024458791e-05 2.112399634287683708e-02 8.213649262862332003e-05 7.630060350992519207e-05 2.120700228260662470e-02 5.168712254836674518e-06 3.628943499073398907e-05 2.041499971494787138e-02 8.613725686842146336e-05 -3.969969734406792789e-05 2.118600409013011304e-02 4.212970868659802852e-05 -6.697025825626283857e-06 2.137200183037356316e-02 1.281462764871585153e-04 -6.570287769785601974e-05 2.096400616923408192e-02 -7.884952833604230488e-05 -1.167041901032281212e-04 2.085999846318051590e-02 2.815269481633191545e-05 -3.370502531533841131e-05 2.080700164360648613e-02 9.814552948256017586e-05 2.029742933926614756e-05 2.098400372830229801e-02 1.140371337079836898e-06 3.729930586819060122e-05 2.111099953723970246e-02 -4.786041407184208029e-05 2.229961361462631518e-05 2.112999775456678511e-02 -7.855320107130542366e-06 -2.470220410269754715e-05 2.100400004987284380e-02 1.291398394593133801e-04 -6.970063838878152139e-05 2.112200626651910759e-02 1.136272561617501758e-06 -1.006993046939518244e-04 2.120900149367995965e-02 7.813786301119722826e-05 6.300110426128910323e-06 2.117200311219919959e-02 -8.586479781170465659e-05 -1.169883960398830226e-05 2.123699668911893310e-02 -1.985701631809809055e-05 -1.107016275862593511e-04 2.104400078047310649e-02 8.188211414447222128e-04 1.878713974476853548e-03 -2.012899331164945751e-02 1.954898625168093994e-03 1.546856369551960801e-04 -2.206492260849866882e-02 4.059399804293763203e-04 -6.483277674098263067e-04 -2.309597429939456645e-02 1.328273611165043690e-04 -2.142882244912902817e-04 -2.032199157191497130e-02 -3.846058674016615813e-03 2.207675873513409263e-03 -2.307418793616642858e-02 -2.542250712226449931e-03 -2.674259617251247955e-03 -1.845206562463192965e-02 -4.401381695128701779e-04 -1.281300067875507055e-03 -2.118899977648307925e-02 6.687217024137205818e-05 7.936965008880504224e-04 -2.140300854967182309e-02 -1.631321075226909692e-04 -6.643022271856076442e-04 -2.132599724436002805e-02 2.148393579157492649e-04 1.168707911514445252e-03 -2.059000784040292478e-02 -2.913063925393952897e-03 6.516765467365993663e-04 -2.297512788310441048e-02 1.685960317688651663e-03 6.226644957741653058e-04 -2.357094019620094641e-02 3.315829018618929921e-03 1.384709141292794115e-03 -2.033188462768035359e-02 -1.789165294451421691e-03 9.457110402187127044e-04 -2.048008628344956394e-02 -6.611424131410742824e-04 -1.760298547894508393e-03 -2.109400198473079108e-02 -2.561984492049130830e-04 1.721125505880825757e-06 -1.968401047531604872e-02 1.658879573013340213e-04 -2.496309970482607846e-03 -2.185395787304650686e-02 6.308265810728247523e-04 -1.157288600150515462e-03 -2.032095792330109590e-02 -8.514374720424505922e-05 -8.429807751255557645e-05 -2.102900229151253783e-02 5.785478991116690440e-05 2.370234926433028105e-05 -2.099099799966460886e-02 -1.841472724966734299e-04 1.457032901602552631e-04 -2.093800958384698860e-02 -1.171465435449531122e-04 3.670295415459400755e-05 -2.095800531015515680e-02 -1.814736744674580823e-05 2.470316019509157421e-05 -2.093800110867632611e-02 -1.014509964849748030e-05 -4.329765419635820002e-05 -2.099499981876861571e-02 -9.214733996029815012e-05 5.970321813327870687e-05 -2.093800461824102746e-02 -1.031440853433238390e-04 2.117021350406701340e-04 -2.101500722111885808e-02 6.485554090267151809e-05 4.670208858072198222e-05 -2.100899804069047971e-02
-3.039998395493156372e-03 1.609110457056070753e-01 3.054594847673552330e-03 -1.050816022334763455e-02 1.097064314971473407e-03 3.955556548612452171e-03 -2.432170604441361537e-03 2.772062060352928001e-03 4.242861662185467599e-03 2.249049843665119951e-04 -4.122968219007740187e-03 2.254067615014961490e-03 -3.576232106030207553e-02 9.375490521998559174e-03 3.262141083478442560e-02 -3.208594734018323930e-02 -1.247334477342595081e-02 -2.609112974645282773e-02 3.119869901183222605e-03 -5.291958590493452998e-03 3.093202074904504231e-03 -5.791227041569106801e-04 1.179043497022640120e-03 3.035959704221814943e-03 -3.801126827098918158e-03 -4.293954036323185779e-03 3.031906096542691387e-03 -8.612359475524885026e-05 -6.095691722504907714e-05 3.033997360029973799e-03 2.087456179813863952e-05 2.904366534167127681e-05 3.081000441118640285e-03 -6.412792912978311228e-05 7.204461091532215838e-05 3.142996370144830916e-03 -6.712636687245954333e-05 3.904406033361823607e-05 3.103996715884726424e-03 -1.012519460970205848e-05 8.004361872043391530e-05 3.075998455710967153e-03 -3.512746648658723029e-05 -2.209556527845498049e-04 3.126001705150012380e-03 1.887349365507530395e-05 1.704403553155276526e-05 3.107000529785929922e-03 -1.212587826799641003e-05 3.904384713528529936e-05 3.091998955542693463e-03 -3.112652900210451118e-05 4.004408885683727115e-05 3.107998167653884970e-03 -2.312728551604583806e-05 -4.195567637634426333e-05 3.124999655981495084e-03 -1.612487121370734372e-05 2.504349582379720518e-05 3.066998991171217184e-03 1.875875850806426790e-06 4.304322652773525087e-05 3.048999468963527887e-03 -7.312628699295007967e-05 3.704403667620606469e-05 3.101996499917006322e-03 4.286793211870485490e-05 3.904595909539193544e-05 3.244001195048205714e-03 1.087907476751252291e-05 2.004209943725481917e-05 2.970000161613185492e-03 2.287040043506380997e-05 1.904510991181412492e-05 3.183000664243158372e-03 1.874835814804550150e-06 -1.409564615422174462e-04 3.071002077651554217e-03 -2.012819778209488510e-05 4.104466153338863092e-05 3.148998601367370039e-03 3.450972280588307105e-04 6.069660433633505782e-04 -2.375994555000063464e-03 2.021527324835018706e-04 -5.340534807997511860e-04 -3.760984199966163188e-03 6.711595027307677708e-05 1.789596258711992870e-04 -2.843999806878858266e-03 -6.998768081581698258e-04 -5.060424814606077687e-04 -3.035021327826136189e-03 1.346125379033670652e-03 -2.070447640350627069e-04 -3.082942252071407124e-03 -9.068503750851560291e-04 2.799486918180985463e-04 -3.669040900175037090e-03 -3.778778286470695687e-04 -1.970422941048642976e-04 -3.004012596669805493e-03 -2.408800349222411897e-04 1.040958704367896072e-03 -2.926024570056883801e-03 -1.928739113802601952e-04 -1.018044026789467630e-03 -3.115993423264427041e-03 4.639069769648038015e-03 1.426972463773992393e-03 -1.685831326072834797e-03 1.761074870668588718e-03 -3.810275510280619203e-04 -1.845922887137263881e-03 -4.174973557292393882e-03 9.499943227243058414e-04 -6.311834778421292593e-04 -3.867947964925478303e-05 -2.590112271519120005e-03 -7.920964860342463026e-03 1.490152809547751547e-03 -9.020546168618597763e-04 -3.769926534084602765e-03 -4.678425223026285535e-04 -2.378055111031325639e-03 -3.912985338999279070e-03 -2.109870359525431362e-03 3.095652419612272669e-05 -3.183086357547612079e-03 -8.659164944185912408e-04 1.073971897041812312e-03 -2.030050489287946354e-03 -8.428812148593336356e-04 -1.245041036704893581e-03 -2.941016673628025612e-03 2.712754861855068054e-05 1.395557400261482414e-05 -3.131999096114205898e-03 2.812210061948679522e-05 -2.704254112946475033e-05 -2.998998474228689419e-03 1.731253707036004865e-04 -1.104378888914940377e-05 -3.078992796475125450e-03 4.512903176749729131e-05 -1.604496466672007801e-05 -3.168997937771586733e-03 1.312511397408863776e-05 -2.704357854137929174e-05 -3.072999084972666359e-03 4.812463861572878205e-05 -1.004343581441418805e-05 -3.060997900776010836e-03 6.012714605923997476e-05 -3.204432423146272340e-05 -3.122997100157366094e-03 1.612544130546750292e-05 -2.504369431293229290e-05 -3.080998991158202544e-03 2.912957366388231232e-05 -5.204515062428745738e-05 -3.182998078892705553e-03 7.699369525809581871e-05 9.002137266669989551e-06 1.550030077615770186e-04 -1.289994948628279373e-04 -1.350001116468167934e-04 -1.500333897778199800e-05 -9.700237813334945192e-05 8.300092660998157268e-05 5.999487326729800756e-05 2.800390366742216158e-05 -5.900139716409472291e-05 -9.699802323795312872e-05 1.109876983213670267e-04 4.700420895468360616e-05 3.030038533779226746e-04 2.229944038713081278e-04 8.200179609714617539e-05 1.390079180439805090e-04 3.600583556245769606e-05 -3.600206978676470377e-05 -1.439980235160128125e-04 3.489975642708923061e-04 -4.199943677149790486e-05 5.901480698825901407e-05 3.599727164887951214e-05 -5.199909244812544350e-05 6.600220313298700309e-05 1.999776044646156493e-04 -9.859926280904932321e-04 5.310221229513852103e-04 -5.340077835469404094e-04 -1.722997341614687259e-03 1.580026832050811551e-04 9.147282404456053354e-04 -2.373391257069505308e-02 6.217373748837589156e-03 -1.470346578508068686e-02 -2.160783220359089457e-02 1.102270762419206747e-02 -8.717400220198174080e-03 9.815800680026340319e-03 -1.454049415978986813e-02 8.130095095097539595e-03 -1.328004309908775889e-02 -2.590480656372988119e-03 -3.859439289817360747e-04 -3.952020297701739661e-03 -1.452959686376602234e-03 3.669975729620384309e-03 -1.763994905497066499e-03 5.621744545759199034e-04 1.586959447179700586e-03 -1.238987461672901068e-03 9.720821893360883465e-04 8.100034374671020434e-05 7.499983732518294933e-05 -6.997764936812404560e-06 -7.700137812614605290e-05 1.120005706800461997e-04 3.599527655149015350e-05 -4.399866246935523243e-05 -6.000044758716280291e-05 -3.400094102003475561e-05 -7.003089318001972235e-06 -4.499893117983815109e-05 7.500035288367832653e-05 -3.999499617981274309e-06 -3.700018117562507160e-05 -1.299963829407140002e-05 -1.160002121272980005e-04 -1.099983828236016929e-05 4.995432332020618933e-06 -9.999418121362217032e-06 6.699982351186747648e-05 -1.300135710657868929e-05 8.400056767137008414e-05 -3.000264260509748923e-06 -1.399653690220142357e-05 -4.700040484367916003e-05 -4.899983559408263806e-05 8.998780822041026279e-06 1.174838700128183998e-02 -2.314880208785348448e-02 1.460880661674669734e-02 -1.582724736072566160e-03 5.680255119908879206e-03 1.790685503327072228e-02 -1.422250182301666027e-02 -1.750181891323124989e-02 1.198666899612852582e-02 -1.120848875632453681e-02 -3.904248352835193447e-02 3.580909715055259623e-02 1.269621737815218865e-01 -1.830812282644663771e-03 2.025719598207900013e-02 -9.381966004662250017e-03 -1.184656640843491414e-03 2.369963477631389925e-02 -5.786097714395685188e-05 -1.683700647761539717e-03 2.111102153464041592e-02 -2.497667436581025961e-03 3.659235335462006095e-03 1.646084642829611505e-02 -1.528977392691983472e-03 -9.421661073368680500e-03 2.382107133928291695e-02 -2.985364583300235269e-05 -1.870276816699687798e-05 2.096299906898565005e-02 -3.985399348152344719e-05 5.729738143325664712e-05 2.097299758425781938e-02 8.014328279912738583e-05 1.129822321284923144e-05 2.103900312287572058e-02 -8.827966646860994102e-06 1.328828337577905330e-05 2.033299947102074068e-02 1.371423328517820347e-04 -5.701495326924506550e-06 2.106200568496483308e-02 -3.865685902460844367e-06 -1.698591899183211822e-06 2.125899988643064134e-02 7.115038152852191857e-05 -2.370425085084552650e-05 2.086400325277246171e-02 -1.884411013838302391e-05 -6.170610855753005280e-05 2.072800012677730036e-02 6.159682388998760832e-06 -2.707432495555245703e-06 2.063600030839605678e-02 5.315117874661595817e-05 6.295493861949035809e-06 2.084500209448189936e-02 1.114466971563684144e-05 1.429779519423920705e-05 2.100500027063530867e-02 -8.854800113281522623e-06 1.529762654272179384e-05 2.099199944205261056e-02 -1.984830827696091498e-05 -1.470463328855426389e-05 2.083199941960488591e-02 1.101449632737333426e-04 -2.670239574060986429e-05 2.099700488329530809e-02 2.614203455223476931e-05 -7.470132334062300921e-05 2.106800214321045972e-02 8.814443548820698020e-05 -2.470219420355633446e-05 2.101000395906897633e-02 -6.585837882346710762e-05 -3.070109535366339053e-05 2.107899777306034006e-02 -2.984980010181371608e-05 -9.970412922718603296e-05 2.086700021747373360e-02 8.578102086878779337e-04 1.957717771936787372e-03 -1.985899284383057031e-02 1.955884114468879435e-03 1.886906976417170034e-04 -2.170792305015364215e-02 3.549268534982770820e-04 -6.153231480524466897e-04 -2.277297684432443015e-02 1.888163726868614500e-04 -2.582844545076865418e-04 -2.005298866797577961e-02 -3.845071156559527314e-03 2.127680196966063968e-03 -2.276918676150802706e-02 -2.561261494663948698e-03 -2.767255873604764632e-03 -1.818906508004058259e-02 -3.751483983083776612e-04 -1.239296545970059935e-03 -2.093699772532808465e-02 4.185964783272073665e-05 8.187008872214058316e-04 -2.109500992242350353e-02 -2.141418233061110525e-04 -6.432987987618289704e-04 -2.108699961907864115e-02 1.988302074436567538e-04 1.079711085699721967e-03 -2.036700723032289218e-02 -2.883073147918014528e-03 6.266797274309869690e-04 -2.274912630724488030e-02 1.683950639426155717e-03 5.876678574811870174e-04 -2.333393978164123930e-02 3.243821118835684379e-03 1.384711948160817930e-03 -2.013788755976197650e-02 -1.714173663417331963e-03 9.707139021173255035e-04 -2.027408358402131572e-02 -6.591526238621393374e-04 -1.695294976662621838e-03 -2.084200282507796959e-02 -3.152084281125017021e-04 -1.275354737179550788e-06 -1.943901283554072892e-02 1.868787136782153701e-04 -2.444306754393426456e-03 -2.162595775536428275e-02 6.588161635667198496e-04 -1.148284992559702030e-03 -2.006495691095511180e-02 -1.201488372802174778e-04 -8.429627788326970626e-05 -2.090400371685852826e-02 5.285153616598042137e-05 2.870348740243606480e-05 -2.091099827423205035e-02 -1.421504119540566006e-04 1.407043489651637724e-04 -2.086100780275400648e-02 -1.081528544990460018e-04 3.770514466580909580e-05 -2.080300495798934751e-02 -2.215263529470461008e-05 5.770500643714663680e-05 -2.080800173954677409e-02 -1.497864462789079304e-07 3.703982593204236042e-06 -2.087900007802282257e-02 -1.101523345293488955e-04 2.570496192167141908e-05 -2.081600486928580560e-02 -8.914867821552969736e-05 1.707037119959378972e-04 -2.090300606984275833e-02 7.884999502108348888e-05 3.670400579995331778e-05 -2.087299732894735277e-02