-1.412881319130000065e+03
-1.412881320250000044e+03
-1.412881322270000055e+03
-1.412881325520000019e+03
-1.412881329779999987e+03
