-4.702367947399999935e+02
-4.702367952700000160e+02
-4.702367962899999725e+02
-4.702367978300000004e+02
-4.702367999200000099e+02
-4.702368025700000089e+02
