-1.440314106612549131e-03 -1.625399338367300994e-01 4.588245811385211967e-03 1.936859756479119557e-03 -2.589527591991897990e-04 3.439082545132462164e-03 -5.141394618738571315e-04 1.598570514904300646e-02 -2.082524759760622651e-02 -1.741822478024342841e-02 -4.206257411657699820e-03 -1.911864966706039448e-02 2.619795953056287818e-03 3.907070056423418355e-03 5.086051291380121707e-03 1.479180632977365219e-02 -8.746294710987848400e-03 -1.996927368060777072e-02 -3.574173836995515365e-03 2.543064017892276464e-03 4.317818405611606111e-03 -3.631736161471008431e-04 -2.993927582773764319e-05 4.262985639701071146e-03 3.935828996380215904e-03 4.400057655358896244e-03 4.284097891128339254e-03 -4.012052579254152024e-05 6.204201176566641687e-05 2.960997489392079747e-03 5.487858137949786007e-05 1.404223511957318467e-05 2.982002038386060479e-03 -2.312863322163365271e-05 -4.695520850859321758e-05 3.157999726839635663e-03 6.187341920491114928e-05 -2.595598395515167871e-05 3.108002890425427735e-03 -4.011633321309258921e-05 -1.479595052372670327e-04 2.854000466821874759e-03 -3.012690403485841320e-05 1.850442581927677968e-04 3.119996152587877977e-03 -2.312011397174423185e-05 -8.795818584148622980e-05 2.948000308323153566e-03 -9.211730177587174680e-05 1.904091826217236915e-05 2.880995981626018228e-03 1.098829752667346559e-04 9.040660853389440214e-06 2.874004349022085854e-03 -3.351218817978207079e-04 2.020427531360519102e-04 2.996983491820649249e-03 3.588764394278455084e-04 1.390427768548853262e-04 3.037012645253238819e-03 -3.011887290128882004e-05 -3.749586907322133397e-04 2.912004092328776290e-03 3.218822531357730908e-04 1.270407784022158700e-04 2.894011308847841118e-03 -4.013079217064662214e-05 4.045570398149654042e-06 3.211998311469031319e-03 -2.911176555112428050e-04 1.390412300220590029e-04 2.891986176834804648e-03 -8.121374129393029573e-06 -3.969578431103937570e-04 2.973005300041591317e-03 2.986991185412182377e-05 1.750453170820448945e-04 3.197998737544071029e-03 -2.512854237541298121e-05 -3.495523529940137563e-05 3.155999475266630782e-03 -1.238490173087727821e-04 -2.210525308625855905e-04 -3.712001912649142820e-03 -9.888779478771617289e-04 -3.804173064346988371e-05 -2.998039731379806196e-03 1.122139109903330873e-03 -3.530494090796288146e-04 -3.422949303272527534e-03 6.021078835190677488e-04 -7.610382409338158809e-04 -2.663964694293179374e-03 -8.278723930126312327e-04 -5.880439407863229844e-04 -3.145025377416218581e-03 2.312566234256591016e-04 2.089105273516208444e-04 -6.297993550781345873e-03 -4.308667284028906480e-04 1.132954245344397828e-03 -3.251033611070715257e-03 6.013544148190657371e-05 2.129528543625611701e-04 -3.322000573524425300e-03 3.831312064964623328e-04 7.329542176710522605e-04 -3.207994793232491881e-03 -2.896749312720046585e-03 -9.260852652753573389e-04 -6.174104833957373348e-03 -1.528891770175130806e-03 8.219637393829058031e-04 -2.642073913846928242e-03 4.432200781383312943e-03 -1.207338094668939124e-05 -4.930819350470839330e-03 -2.010118860451534298e-05 2.290035871073538114e-03 2.528966716153683344e-03 -4.219276634077720771e-04 -8.630250902757081446e-04 -1.793004947122529228e-03 4.462554677420864390e-04 9.169109544034780707e-04 -6.255994833693934165e-03 -1.587903425689321350e-03 8.099678404303625430e-04 -2.356076146509848007e-03 3.720766447478663361e-05 -6.707234989825118531e-05 -5.100997538676474430e-03 1.564154088403213461e-03 9.899453958946663294e-04 -3.764950345074748270e-03 1.112111708981974384e-05 1.695782662191827137e-05 -2.973999790327991159e-03 -3.587685153063880055e-05 1.095715453357430869e-05 -3.024001619094932990e-03 3.012249217973968308e-05 4.957329701158699261e-06 -3.007998846467051842e-03 3.112012956163481771e-05 -4.804186294215874621e-05 -2.950998054377724361e-03 -3.877170296719632995e-06 -3.204277127340024461e-05 -3.016999706390375256e-03 -1.687498152205083203e-05 6.956487478463884278e-06 -3.070000788644946035e-03 -2.787899796321098377e-05 7.795791386380030667e-05 -2.970002243288474234e-03 1.912211945769640424e-05 4.895748008763434590e-05 -2.997999918227302676e-03 1.511986808619239033e-05 8.595827717242928790e-05 -2.942000605740013007e-03 -3.550137155015414218e-04 1.650050983974249430e-04 3.399832044508180654e-04 3.098926933680672737e-05 1.810037611802342962e-04 2.669986959229942607e-04 3.159751303746167247e-04 2.220084718949829619e-04 6.150097197537600846e-04 8.198725800210120954e-05 -4.629957541092186006e-04 3.040099031316789756e-04 3.319914829253954873e-04 2.520027740680794680e-04 2.140099463272429170e-04 -4.000048923876665572e-04 9.600204287981878889e-05 1.219823504808494871e-04 -1.670217236585534357e-04 -2.499231247219307599e-05 5.329935535664742869e-04 1.589838172395976286e-04 -2.099449590951255382e-05 3.970067719793097822e-04 2.498954867781692988e-05 -2.939964609186291461e-04 2.510051860504080440e-04 -1.215974263020861259e-03 8.319922185175066464e-04 -6.160613118815299293e-04 1.447055094552733090e-03 4.209980832424444798e-03 -1.272000764130182000e-03 -2.467729784648087167e-04 2.344092754401348733e-02 -5.124342394240398620e-03 6.315895608844220889e-03 1.385203517636071462e-02 2.830060799885341684e-03 1.258881820554868733e-02 5.731706828181794451e-03 -1.998256865429017329e-02 -1.889524155258280255e-02 2.084675641725104722e-02 -1.822506500809669902e-02 -2.799017386120031779e-03 1.922008769909529366e-03 4.638587722450069717e-04 4.719051975517214899e-03 1.289782425168427326e-04 -1.273809666050759563e-03 -1.928127067980299958e-03 -1.278730590544819960e-02 -2.168289723930386798e-02 -3.899739072458004326e-05 -4.800089101500957817e-05 -6.500090752012322619e-05 2.200177600226263947e-05 -7.200065521944834751e-05 -4.499808330047387123e-05 1.300314257104137715e-05 6.099891230245286242e-05 -7.600033540185750964e-05 3.004841859605719110e-06 -5.001689506132634087e-06 -1.189998068380071082e-04 -4.999674148277427594e-05 5.299891909863109512e-05 -7.900278739058131153e-05 3.900217930367683595e-05 -2.500079613527941038e-05 -5.399805739252145400e-05 1.300635633314569262e-05 -4.700223608808391215e-05 -1.569988041281055640e-04 -4.599617925504790987e-05 -9.001296694033667634e-06 -9.400174547189789917e-05 2.900270792429881342e-05 2.599904155599640603e-05 -6.599918765581427112e-05 -1.290512912520846815e-02 1.737340797350227922e-02 2.806222820176515823e-02 4.692137035998349137e-03 -3.167033037964373811e-04 2.118619557761083905e-02 8.200813616980998783e-03 1.713041131070121292e-02 2.946409109994297879e-02 -2.087067343642608035e-03 4.532503744265477946e-02 2.525272406106403127e-03 3.812190122187942079e-03 5.329280442205540022e-03 1.999107969672018689e-02 -1.713702761085118863e-03 1.106335341847017014e-03 1.646239146842220502e-01 1.568159557856759010e-03 -2.238709222421951268e-03 2.059609561588179524e-02 9.972180259523010914e-04 1.701271942469963043e-03 1.923601650515200170e-02 -2.563913464187445122e-03 3.132005729940561569e-05 2.243289517209424294e-02 -3.837474171086506317e-06 4.029159706219135863e-05 2.056699929160785492e-02 -1.038696333403188471e-04 1.053028899913865257e-04 2.135799429723280601e-02 1.151359178330333728e-04 1.223007903333451737e-04 2.122200297420365200e-02 1.211740548281954800e-05 -1.176927489859425595e-04 2.167200218220089597e-02 1.013859677632749763e-05 -9.670011987565617394e-05 2.115200180350955417e-02 1.114611610152139003e-05 4.129729896867958704e-05 2.096999988786823338e-02 -1.388688228623196773e-04 -3.697394504257569937e-06 2.133599441739968822e-02 1.814801738805769872e-05 -7.870340121216892455e-05 2.092100187429135616e-02 1.321161720794328362e-04 2.330762490755128893e-05 2.170500506960770445e-02 -2.285155575521829267e-05 -1.703496717247286322e-06 2.091199911305703998e-02 1.711276749632692528e-04 1.523036245749948404e-04 2.142500482904969791e-02 -1.408688314050252771e-04 1.413026495805031803e-04 2.133899228017949526e-02 -2.268705424175321424e-04 8.830329821312548342e-05 2.137998952956964710e-02 2.701320797340786280e-04 5.730198751046252764e-05 2.131501020740374577e-02 -4.685975394490425643e-05 -1.870062818675774266e-05 2.111299837659174478e-02 -6.286758962149540633e-05 -1.446979218649979942e-04 2.130299951127969868e-02 -1.684298947091472746e-05 6.929353541838724083e-05 2.070299835095522692e-02 5.912809781112534263e-05 -8.769650037217139942e-05 2.141000367099154741e-02 -1.115125112860131410e-03 -5.213038778350996202e-04 -2.149503803787336173e-02 6.328427612898579729e-04 3.677061807010611355e-04 -2.068897946260658816e-02 4.610500999397612858e-04 -3.441366912552660563e-03 -2.585393245869055737e-02 1.496124367847280348e-03 1.903607876521661111e-03 -2.757496609115554428e-02 1.243851099960969651e-03 4.087028100160225636e-04 -2.089295516326521857e-02 -2.734914217037018747e-03 2.078624672444145342e-03 -2.662414086306927330e-02 4.148692209227211451e-04 -6.313031334501641645e-04 -2.135797417554452515e-02 1.038120101424648317e-04 -2.652828709282038355e-04 -1.994599203010324548e-02 -4.871922215842993645e-04 5.697192930737902776e-04 -1.982602793467030250e-02 -5.641476821403230459e-04 -6.892964972838001251e-04 -2.094401321933234486e-02 2.041780507059961711e-03 -2.442734147632599079e-04 -1.917191341154632703e-02 -1.475289100994194415e-03 -7.882465728366159661e-04 -1.747304891565576099e-02 -8.581835697934810537e-04 -1.329283946514240363e-03 -2.007501611830177224e-02 1.042866203900421652e-03 -6.873025901870432122e-04 -2.128494780896313110e-02 -1.822160184634740679e-04 2.212727787616273253e-03 -1.921003880944872205e-02 4.888926053345751029e-04 4.736889681758877095e-04 -2.191098682811610729e-02 6.398347919778441320e-04 8.507090816194456343e-04 -2.048398602561095350e-02 -1.126128373811543463e-03 7.736976193158202550e-04 -2.139005684610402122e-02 2.287015966910776899e-05 -5.730299670708119582e-05 -2.136999827614324138e-02 -3.413276591550934430e-05 -4.930193127584064439e-05 -2.129800071072079221e-02 -1.137450406627836704e-06 -5.130032666804539048e-05 -2.118299933868408175e-02 -4.132023562389302399e-06 -3.730220996725159622e-05 -2.131599965921169085e-02 -1.712724586759516743e-05 3.169615558048030505e-05 -2.143200116674059616e-02 4.865304501193768897e-06 -6.930129545429242611e-05 -2.125099883909601847e-02 -1.282764398710506799e-07 1.569649671604271749e-05 -2.140700024766515122e-02 9.387077272357835522e-05 -1.583032933121474842e-04 -2.138699395299289638e-02 -9.712851992586712577e-05 -3.530335643921195124e-05 -2.140200347452642440e-02
-1.451312673388402506e-03 -1.622179342393056667e-01 4.559240798242972584e-03 1.944860119825750746e-03 -2.629528930629140382e-04 3.430082927618691158e-03 -5.131404807042415318e-04 1.593270548853244206e-02 -2.080124680548622179e-02 -1.736922546862048125e-02 -4.201257209002495774e-03 -1.910164774264331081e-02 2.613797261613159256e-03 3.914069607431238176e-03 5.054050947840418168e-03 1.475280532588932152e-02 -8.728294326007930010e-03 -1.994427552394394815e-02 -3.568173066438825800e-03 2.539063743816590609e-03 4.298818706665428688e-03 -3.481726365086612075e-04 -2.693962784007113525e-05 4.238986208002857269e-03 3.913830255610208433e-03 4.396057233073557939e-03 4.253097052009486082e-03 -5.012037230376931049e-05 5.004196288565626290e-05 2.956997252320448227e-03 6.987889459660114066e-05 -1.957890046119075494e-06 2.974002876050479451e-03 -2.712741394383617140e-05 -4.995563071016706849e-05 3.127999606517409444e-03 4.787358366702976084e-05 -2.395602970458857357e-05 3.104002291981703375e-03 -3.311660807832313348e-05 -1.349594114749831349e-04 2.861000567550400168e-03 -2.212662134633399459e-05 1.820441526845334673e-04 3.112996520894484483e-03 -1.912015547947532978e-05 -8.895817479557467287e-05 2.949000485383391698e-03 -9.111667842692517923e-05 3.504070481063277265e-05 2.865995795516597996e-03 1.038835915693256244e-04 1.604045288373024517e-05 2.859004005466578638e-03 -3.161217541660448719e-04 2.090426957250331619e-04 2.993984166275265139e-03 3.358767793179645252e-04 1.570426814396193912e-04 3.029011453481357356e-03 -2.711914854677524841e-05 -3.629585938378440007e-04 2.919004044351661015e-03 3.248824622224993409e-04 1.340407051635449174e-04 2.889011331770698510e-03 -3.613052515027434199e-05 -1.895453197608384897e-05 3.204998800447502686e-03 -2.971171973905709649e-04 1.520410787629764232e-04 2.880985748208998200e-03 -2.112043989001102489e-05 -3.999581590204346324e-04 2.950004813225198114e-03 1.186993926914175742e-05 1.580453169998941303e-04 3.196998245591659796e-03 -1.283889156697845881e-07 -4.695531158427698878e-05 3.152000663424788483e-03 -1.308480188463225381e-04 -1.940528656514231337e-04 -3.736002580472404071e-03 -9.938777826389343442e-04 -3.504178343997298276e-05 -3.002039977513634023e-03 1.128139650239303815e-03 -3.390495980903568754e-04 -3.435949257424024579e-03 6.251084528081783014e-04 -7.620384574317617780e-04 -2.677963743522825558e-03 -8.518718268188329393e-04 -5.930441204830463192e-04 -3.159026283814813773e-03 2.342575928875963078e-04 1.989101847365517715e-04 -6.321993286818847896e-03 -4.198656352179216717e-04 1.124953853931772016e-03 -3.278033049694146009e-03 5.313546496993566735e-05 1.909528456679567606e-04 -3.323000546658657576e-03 3.771326301636921904e-04 7.309537261463931301e-04 -3.242995009169535609e-03 -2.884750006551426230e-03 -9.280850336485884072e-04 -6.157104316967436722e-03 -1.510892703635086185e-03 8.259640513778650651e-04 -2.619073237604042752e-03 4.405199845609960793e-03 -1.107303371660063829e-05 -4.907820464132964071e-03 -3.210082994273731144e-05 2.280035752870341725e-03 2.519966369289471184e-03 -3.939278740873567190e-04 -8.720250413097165119e-04 -1.788003679343474735e-03 4.332539869147319922e-04 8.979114749849765242e-04 -6.219995093720957942e-03 -1.582903950362947497e-03 8.159680208261165793e-04 -2.343076027984257632e-03 3.920744443886587657e-05 -3.607226640059647751e-05 -5.094997896751017608e-03 1.557153518317259044e-03 9.899455998647744941e-04 -3.750950630133720234e-03 1.312029796991979321e-05 1.095810861243809525e-05 -2.953999623838300150e-03 -4.487746390292135068e-05 8.957374247671785495e-06 -3.009001957241009845e-03 4.012168088893941210e-05 8.957605426701159047e-06 -2.987998495988186676e-03 2.611886800331495226e-05 -4.704141951562251637e-05 -2.919998272188560357e-03 -5.878384084526303695e-06 -2.204234437455514803e-05 -2.986999929637600137e-03 -1.187607158599629396e-05 1.895686636274817688e-05 -3.043000755198951683e-03 -3.287997760994471942e-05 7.495825804617222202e-05 -2.946002404381749956e-03 1.612121184810204599e-05 3.395779434963297342e-05 -2.975999827743855235e-03 2.311908811500907389e-05 7.795854028737842303e-05 -2.923000166568758603e-03 -3.510079260934160605e-04 1.740030820175914701e-04 1.979832398663542825e-04 2.999256067351566154e-05 1.720026135627133156e-04 1.859987828773118233e-04 3.179813316942419008e-04 2.370063153025832509e-04 4.630095886703092874e-04 7.799219776423597158e-05 -4.469974664920859839e-04 1.830095135165404430e-04 3.099959215152035298e-04 2.520012459143002774e-04 1.050090505698445870e-04 -3.830005736420047597e-04 9.900052672227318629e-05 1.598300030056550369e-05 -1.540173375722167070e-04 -3.999385385153016517e-05 4.249942957043873989e-04 1.369890162046166272e-04 -3.799629343968982399e-05 2.690061172615527550e-04 2.399557144510058255e-05 -2.989985584488426967e-04 1.030052163559548470e-04 -1.170976978817289162e-03 8.479931331933560947e-04 -5.490597063497282358e-04 1.436052376452031168e-03 4.222981790948381227e-03 -1.205001396432752326e-03 -2.727771680382872583e-04 2.334292899633860080e-02 -5.023342063655596504e-03 6.285896055989787477e-03 1.379903502972240105e-02 2.818060329692427275e-03 1.255281176460868071e-02 5.670709082289678016e-03 -1.982556925554318852e-02 -1.883224591686705890e-02 2.073375785660219392e-02 -1.812006084069341452e-02 -2.784017380647458607e-03 1.929008758163881353e-03 4.638592838134294148e-04 4.698050236292113969e-03 1.439788686034504600e-04 -1.230810733895057940e-03 -1.922133471318632041e-03 -1.274830367005844178e-02 -2.152489754805841232e-02 -4.999719416341795800e-05 -5.700095329012137813e-05 -7.000122784496630587e-05 2.300419028459621784e-05 -5.700149249388311004e-05 -1.039982551912284488e-04 2.400284106099466851e-05 3.999900293617974280e-05 -6.899958974596959648e-05 7.003039952872284473e-06 -1.800106881381072801e-05 -7.499945968457988874e-05 -3.699564046372919143e-05 5.499852611900464251e-05 -1.060022863499445757e-04 2.700243382512503414e-05 -1.200087180740826613e-05 -5.999873034808234253e-05 -1.199428969454507817e-05 -4.000198966915988820e-05 -1.409999214086013507e-04 -1.999641890021146097e-05 -3.001231985766410276e-06 -8.800077180192727067e-05 3.000141269232392096e-05 3.599949446144375966e-05 -3.399928874234497272e-05 -1.284212652852984374e-02 1.736140701679582746e-02 2.799823093737143290e-02 4.698138730597182719e-03 -3.367039039598033784e-04 2.114419610553025519e-02 8.127816898165989012e-03 1.705641020528817289e-02 2.938208917655156863e-02 -2.037069474588433515e-03 4.510003808406183590e-02 2.573277632101118526e-03 3.738192101899008753e-03 5.309279805437298536e-03 1.994207696697802845e-02 -1.679673721694357070e-03 1.061325192283794905e-03 1.639099167073941044e-01 1.634160096575820644e-03 -2.226709458412246424e-03 2.058309813333689467e-02 9.852197644211985010e-04 1.685271342222329155e-03 1.919301624338597828e-02 -2.625912726459460941e-03 3.731985064424587166e-05 2.241489256235162236e-02 1.166554812225840966e-06 -1.470982462678111297e-05 2.046700027508206385e-02 -5.186295438211229917e-05 1.063005241170460234e-04 2.119399640069175722e-02 5.414319751110696356e-05 1.102983002719504045e-04 2.104300066053128859e-02 -6.887784029817304210e-05 -1.306943443640008762e-04 2.155499906823164433e-02 9.914306894275075549e-05 -1.057017491188966989e-04 2.104200555536743164e-02 -1.684748132547309328e-05 1.295080804937021442e-06 2.081199931494181685e-02 -1.608638000764287413e-04 1.430087885101357899e-05 2.121299326645556191e-02 3.015464787282800361e-05 1.629430675724663551e-05 2.076000101620370866e-02 1.361217892013163653e-04 2.030566524010898047e-05 2.156700527515268556e-02 -4.384423695662765488e-05 -1.570603227608202988e-05 2.073199845657518539e-02 1.201325278376913963e-04 1.613019773492432635e-04 2.130600262479704146e-02 -7.286259177002089263e-05 1.533004271328642742e-04 2.118599487920643648e-02 -2.118637005452777536e-04 8.930090459846129827e-05 2.121199012636082459e-02 2.471379490391308943e-04 6.429996391613613442e-05 2.117100917171368599e-02 -3.585367947172325438e-05 4.229726488042128579e-05 2.096499795981511538e-02 -1.058611361287535417e-04 -1.717001424629041302e-04 2.114399814323052185e-02 3.162301062423483891e-06 1.329166247291699148e-05 2.057199995944878138e-02 9.213469534341046409e-05 -8.669882301399419757e-05 2.124800500075246790e-02 -1.108130823161439108e-03 -4.813018842509589183e-04 -2.135403832006901870e-02 6.268377745715707173e-04 3.957079292650450379e-04 -2.056598010402341595e-02 4.710443864766898419e-04 -3.457364935489657624e-03 -2.571393182476797504e-02 1.556118150804762339e-03 1.868609984570315276e-03 -2.742296315182405492e-02 1.222845085831241168e-03 4.247049247710425442e-04 -2.074495624538489139e-02 -2.774919495066555282e-03 2.046626532702819530e-03 -2.649514203833481032e-02 4.178637784319942454e-04 -6.133012359763886185e-04 -2.122397430870628238e-02 1.508067085585466536e-04 -2.752810646146178512e-04 -1.981598997456645792e-02 -5.571982497777099768e-04 5.677214461974366185e-04 -1.967803075691193504e-02 -6.141534824803248846e-04 -7.122944448847319532e-04 -2.080201492941834152e-02 2.090775679236568478e-03 -2.732717801472951875e-04 -1.905391100517917283e-02 -1.474296798017359382e-03 -7.892438940161877053e-04 -1.728404886093284215e-02 -9.101902495352611182e-04 -1.331281580639798959e-03 -1.991101820758296032e-02 1.045860695639484403e-03 -6.493006643596930258e-04 -2.114894822568201896e-02 -1.402222253046073684e-04 2.190729909757547708e-03 -1.905803678740347618e-02 4.788857532717184047e-04 4.596913578768816941e-04 -2.174298703699210217e-02 6.568282375006307414e-04 9.047113651059159782e-04 -2.032198609910630671e-02 -1.138135763054414981e-03 8.017002090677076160e-04 -2.120805773190079929e-02 5.386463257918363992e-05 -4.330109280120398836e-05 -2.123399721241196747e-02 -7.613687711836873088e-05 -4.730046643287202625e-05 -2.119700244944595566e-02 1.885936789123017856e-05 -6.299222286671335791e-06 -2.110399916233985512e-02 -1.013796331504015463e-05 -3.030013531185731136e-05 -2.117000000291686251e-02 -8.132116729372713604e-06 -3.021643056109078486e-07 -2.131300034667512819e-02 1.186023946473813371e-05 -3.729952871407107607e-05 -2.112599900785469206e-02 8.864757154728454718e-06 1.169891407248767258e-05 -2.123599982462540114e-02 2.986667013329282928e-05 -1.973018254169255244e-04 -2.128699600628755281e-02 -3.913350828936440766e-05 -6.130167215933357843e-05 -2.128000074420861865e-02