9.299751419999999769e+00 0.000000000000000000e+00 0.000000000000000000e+00 0.000000000000000000e+00 1.610764265999999978e+01 0.000000000000000000e+00 0.000000000000000000e+00 0.000000000000000000e+00 2.163356217000000115e+01
9.299751419999999769e+00 0.000000000000000000e+00 0.000000000000000000e+00 0.000000000000000000e+00 1.610764265999999978e+01 0.000000000000000000e+00 0.000000000000000000e+00 0.000000000000000000e+00 2.163356217000000115e+01
9.299751419999999769e+00 0.000000000000000000e+00 0.000000000000000000e+00 0.000000000000000000e+00 1.610764265999999978e+01 0.000000000000000000e+00 0.000000000000000000e+00 0.000000000000000000e+00 2.163356217000000115e+01
9.299751419999999769e+00 0.000000000000000000e+00 0.000000000000000000e+00 0.000000000000000000e+00 1.610764265999999978e+01 0.000000000000000000e+00 0.000000000000000000e+00 0.000000000000000000e+00 2.163356217000000115e+01
9.299751419999999769e+00 0.000000000000000000e+00 0.000000000000000000e+00 0.000000000000000000e+00 1.610764265999999978e+01 0.000000000000000000e+00 0.000000000000000000e+00 0.000000000000000000e+00 2.163356217000000115e+01
