1.100000000000000039e-04 1.610690999999999917e+01 4.870630000000000237e+00 1.550070000000000059e+00 2.683860000000000134e+00 4.870630000000000237e+00 1.499999999999999869e-04 3.580130000000000035e+00 2.312240000000000073e+00 1.550119999999999942e+00 8.955400000000000027e-01 2.312279999999999891e+00 3.100029999999999841e+00 1.610690999999999917e+01 4.870630000000000237e+00 4.649989999999999846e+00 2.683860000000000134e+00 4.870630000000000237e+00 3.100070000000000103e+00 3.580130000000000035e+00 2.312240000000000073e+00 4.650030000000000108e+00 8.955400000000000027e-01 2.312279999999999891e+00 6.199939999999999785e+00 1.610690999999999917e+01 4.870630000000000237e+00 7.749900000000000233e+00 2.683860000000000134e+00 4.870630000000000237e+00 6.199980000000000047e+00 3.580130000000000035e+00 2.312240000000000073e+00 7.749950000000000117e+00 8.955400000000000027e-01 2.312279999999999891e+00 1.100000000000000039e-04 5.368479999999999919e+00 4.870630000000000237e+00 1.550070000000000059e+00 8.053079999999999572e+00 4.870630000000000237e+00 1.499999999999999869e-04 8.949350000000000804e+00 2.312240000000000073e+00 1.550119999999999942e+00 6.264750000000000263e+00 2.312279999999999891e+00 3.100029999999999841e+00 5.368479999999999919e+00 4.870630000000000237e+00 4.649989999999999846e+00 8.053079999999999572e+00 4.870630000000000237e+00 3.100070000000000103e+00 8.949350000000000804e+00 2.312240000000000073e+00 4.650030000000000108e+00 6.264750000000000263e+00 2.312279999999999891e+00 6.199939999999999785e+00 5.368479999999999919e+00 4.870630000000000237e+00 7.749900000000000233e+00 8.053079999999999572e+00 4.870630000000000237e+00 6.199980000000000047e+00 8.949350000000000804e+00 2.312240000000000073e+00 7.749950000000000117e+00 6.264750000000000263e+00 2.312279999999999891e+00 1.100000000000000039e-04 1.073769000000000062e+01 4.870630000000000237e+00 1.550070000000000059e+00 1.342229000000000028e+01 4.870630000000000237e+00 1.499999999999999869e-04 1.431855999999999973e+01 2.312240000000000073e+00 1.550119999999999942e+00 1.163396000000000008e+01 2.312279999999999891e+00 3.100029999999999841e+00 1.073769000000000062e+01 4.870630000000000237e+00 4.649989999999999846e+00 1.342229000000000028e+01 4.870630000000000237e+00 3.100070000000000103e+00 1.431855999999999973e+01 2.312240000000000073e+00 4.650030000000000108e+00 1.163396000000000008e+01 2.312279999999999891e+00 6.199939999999999785e+00 1.073769000000000062e+01 4.870630000000000237e+00 7.749900000000000233e+00 1.342229000000000028e+01 4.870630000000000237e+00 6.199980000000000047e+00 1.431855999999999973e+01 2.312240000000000073e+00 7.749950000000000117e+00 1.163396000000000008e+01 2.312279999999999891e+00 1.100000000000000039e-04 1.610690999999999917e+01 1.208182000000000045e+01 1.550070000000000059e+00 2.683860000000000134e+00 1.208182000000000045e+01 1.499999999999999869e-04 3.580130000000000035e+00 9.523429999999999396e+00 1.550119999999999942e+00 8.955400000000000027e-01 9.523469999999999658e+00 3.100029999999999841e+00 1.610690999999999917e+01 1.208182000000000045e+01 4.649989999999999846e+00 2.683860000000000134e+00 1.208182000000000045e+01 3.100070000000000103e+00 3.580130000000000035e+00 9.523429999999999396e+00 4.650030000000000108e+00 8.955400000000000027e-01 9.523469999999999658e+00 6.199939999999999785e+00 1.610690999999999917e+01 1.208182000000000045e+01 7.749900000000000233e+00 2.683860000000000134e+00 1.208182000000000045e+01 6.199980000000000047e+00 3.580130000000000035e+00 9.523429999999999396e+00 7.749950000000000117e+00 8.955400000000000027e-01 9.523469999999999658e+00 1.100000000000000039e-04 5.368479999999999919e+00 1.208182000000000045e+01 1.550070000000000059e+00 8.053079999999999572e+00 1.208182000000000045e+01 1.499999999999999869e-04 8.949350000000000804e+00 9.523429999999999396e+00 1.550119999999999942e+00 6.264750000000000263e+00 9.523469999999999658e+00 3.100029999999999841e+00 5.368479999999999919e+00 1.208182000000000045e+01 4.649989999999999846e+00 8.053079999999999572e+00 1.208182000000000045e+01 3.100070000000000103e+00 8.949350000000000804e+00 9.523429999999999396e+00 4.650030000000000108e+00 6.264750000000000263e+00 9.523469999999999658e+00 6.199939999999999785e+00 5.368479999999999919e+00 1.208182000000000045e+01 7.749900000000000233e+00 8.053079999999999572e+00 1.208182000000000045e+01 6.199980000000000047e+00 8.949350000000000804e+00 9.523429999999999396e+00 7.749950000000000117e+00 6.264750000000000263e+00 9.523469999999999658e+00 1.100000000000000039e-04 1.073769000000000062e+01 1.208182000000000045e+01 1.550070000000000059e+00 1.342229000000000028e+01 1.208182000000000045e+01 1.499999999999999869e-04 1.431855999999999973e+01 9.523429999999999396e+00 1.550119999999999942e+00 1.163396000000000008e+01 9.523469999999999658e+00 3.100029999999999841e+00 1.073769000000000062e+01 1.208182000000000045e+01 4.649989999999999846e+00 1.342229000000000028e+01 1.208182000000000045e+01 3.100070000000000103e+00 1.431855999999999973e+01 9.523429999999999396e+00 4.650030000000000108e+00 1.163396000000000008e+01 9.523469999999999658e+00 6.199939999999999785e+00 1.073769000000000062e+01 1.208182000000000045e+01 7.749900000000000233e+00 1.342229000000000028e+01 1.208182000000000045e+01 6.199980000000000047e+00 1.431855999999999973e+01 9.523429999999999396e+00 7.749950000000000117e+00 1.163396000000000008e+01 9.523469999999999658e+00 1.100000000000000039e-04 1.610690999999999917e+01 1.929300999999999888e+01 1.550070000000000059e+00 2.683860000000000134e+00 1.929299999999999926e+01 1.499999999999999869e-04 3.580130000000000035e+00 1.673460999999999999e+01 1.550119999999999942e+00 8.955400000000000027e-01 1.673466000000000165e+01 3.100029999999999841e+00 1.610690999999999917e+01 1.929300999999999888e+01 4.649989999999999846e+00 2.683860000000000134e+00 1.929299999999999926e+01 3.100070000000000103e+00 3.580130000000000035e+00 1.673460999999999999e+01 4.650030000000000108e+00 8.955400000000000027e-01 1.673466000000000165e+01 6.199939999999999785e+00 1.610690999999999917e+01 1.929300999999999888e+01 7.749900000000000233e+00 2.683860000000000134e+00 1.929299999999999926e+01 6.199980000000000047e+00 3.580130000000000035e+00 1.673460999999999999e+01 7.749950000000000117e+00 8.955400000000000027e-01 1.673466000000000165e+01 1.100000000000000039e-04 5.368479999999999919e+00 1.929300999999999888e+01 1.550070000000000059e+00 8.053079999999999572e+00 1.929299999999999926e+01 1.499999999999999869e-04 8.949350000000000804e+00 1.673460999999999999e+01 1.550119999999999942e+00 6.264750000000000263e+00 1.673466000000000165e+01 3.100029999999999841e+00 5.368479999999999919e+00 1.929300999999999888e+01 4.649989999999999846e+00 8.053079999999999572e+00 1.929299999999999926e+01 3.100070000000000103e+00 8.949350000000000804e+00 1.673460999999999999e+01 4.650030000000000108e+00 6.264750000000000263e+00 1.673466000000000165e+01 6.199939999999999785e+00 5.368479999999999919e+00 1.929300999999999888e+01 7.749900000000000233e+00 8.053079999999999572e+00 1.929299999999999926e+01 6.199980000000000047e+00 8.949350000000000804e+00 1.673460999999999999e+01 7.749950000000000117e+00 6.264750000000000263e+00 1.673466000000000165e+01 1.100000000000000039e-04 1.073769000000000062e+01 1.929300999999999888e+01 1.550070000000000059e+00 1.342229000000000028e+01 1.929299999999999926e+01 1.499999999999999869e-04 1.431855999999999973e+01 1.673460999999999999e+01 1.550119999999999942e+00 1.163396000000000008e+01 1.673466000000000165e+01 3.100029999999999841e+00 1.073769000000000062e+01 1.929300999999999888e+01 4.649989999999999846e+00 1.342229000000000028e+01 1.929299999999999926e+01 3.100070000000000103e+00 1.431855999999999973e+01 1.673460999999999999e+01 4.650030000000000108e+00 1.163396000000000008e+01 1.673466000000000165e+01 6.199939999999999785e+00 1.073769000000000062e+01 1.929300999999999888e+01 7.749900000000000233e+00 1.342229000000000028e+01 1.929299999999999926e+01 6.199980000000000047e+00 1.431855999999999973e+01 1.673460999999999999e+01 7.749950000000000117e+00 1.163396000000000008e+01 1.673466000000000165e+01 9.000000000000000567e-05 1.789709999999999912e+00 3.591419999999999835e+00 9.000000000000000567e-05 3.579050000000000065e+00 5.920969999999999622e+00 1.550140000000000073e+00 2.684940000000000104e+00 1.262080000000000091e+00 2.000000000000000096e-04 2.900000000000000017e-04 1.262070000000000025e+00 1.550059999999999993e+00 4.474310000000000009e+00 3.591509999999999980e+00 1.550049999999999928e+00 8.944600000000000328e-01 5.921039999999999637e+00 3.100010000000000154e+00 1.789709999999999912e+00 3.591419999999999835e+00 3.100010000000000154e+00 3.579050000000000065e+00 5.920969999999999622e+00 4.650050000000000239e+00 2.684940000000000104e+00 1.262080000000000091e+00 3.100109999999999921e+00 2.900000000000000017e-04 1.262070000000000025e+00 4.649980000000000224e+00 4.474310000000000009e+00 3.591509999999999980e+00 4.649969999999999715e+00 8.944600000000000328e-01 5.921039999999999637e+00 6.199919999999999654e+00 1.789709999999999912e+00 3.591419999999999835e+00 6.199930000000000163e+00 3.579050000000000065e+00 5.920969999999999622e+00 7.749970000000000248e+00 2.684940000000000104e+00 1.262080000000000091e+00 6.200029999999999930e+00 2.900000000000000017e-04 1.262070000000000025e+00 7.749889999999999723e+00 4.474310000000000009e+00 3.591509999999999980e+00 7.749889999999999723e+00 8.944600000000000328e-01 5.921039999999999637e+00 9.000000000000000567e-05 7.158920000000000172e+00 3.591419999999999835e+00 9.000000000000000567e-05 8.948259999999999437e+00 5.920969999999999622e+00 1.550140000000000073e+00 8.054149999999999920e+00 1.262080000000000091e+00 2.000000000000000096e-04 5.369510000000000005e+00 1.262070000000000025e+00 1.550059999999999993e+00 9.843529999999999447e+00 3.591509999999999980e+00 1.550049999999999928e+00 6.263670000000000293e+00 5.921039999999999637e+00 3.100010000000000154e+00 7.158920000000000172e+00 3.591419999999999835e+00 3.100010000000000154e+00 8.948259999999999437e+00 5.920969999999999622e+00 4.650050000000000239e+00 8.054149999999999920e+00 1.262080000000000091e+00 3.100109999999999921e+00 5.369510000000000005e+00 1.262070000000000025e+00 4.649980000000000224e+00 9.843529999999999447e+00 3.591509999999999980e+00 4.649969999999999715e+00 6.263670000000000293e+00 5.921039999999999637e+00 6.199919999999999654e+00 7.158920000000000172e+00 3.591419999999999835e+00 6.199930000000000163e+00 8.948259999999999437e+00 5.920969999999999622e+00 7.749970000000000248e+00 8.054149999999999920e+00 1.262080000000000091e+00 6.200029999999999930e+00 5.369510000000000005e+00 1.262070000000000025e+00 7.749889999999999723e+00 9.843529999999999447e+00 3.591509999999999980e+00 7.749889999999999723e+00 6.263670000000000293e+00 5.921039999999999637e+00 9.000000000000000567e-05 1.252814000000000050e+01 3.591419999999999835e+00 9.000000000000000567e-05 1.431747999999999976e+01 5.920969999999999622e+00 1.550140000000000073e+00 1.342336000000000062e+01 1.262080000000000091e+00 2.000000000000000096e-04 1.073872000000000071e+01 1.262070000000000025e+00 1.550059999999999993e+00 1.521274000000000015e+01 3.591509999999999980e+00 1.550049999999999928e+00 1.163288999999999973e+01 5.921039999999999637e+00 3.100010000000000154e+00 1.252814000000000050e+01 3.591419999999999835e+00 3.100010000000000154e+00 1.431747999999999976e+01 5.920969999999999622e+00 4.650050000000000239e+00 1.342336000000000062e+01 1.262080000000000091e+00 3.100109999999999921e+00 1.073872000000000071e+01 1.262070000000000025e+00 4.649980000000000224e+00 1.521274000000000015e+01 3.591509999999999980e+00 4.649969999999999715e+00 1.163288999999999973e+01 5.921039999999999637e+00 6.199919999999999654e+00 1.252814000000000050e+01 3.591419999999999835e+00 6.199930000000000163e+00 1.431747999999999976e+01 5.920969999999999622e+00 7.749970000000000248e+00 1.342336000000000062e+01 1.262080000000000091e+00 6.200029999999999930e+00 1.073872000000000071e+01 1.262070000000000025e+00 7.749889999999999723e+00 1.521274000000000015e+01 3.591509999999999980e+00 7.749889999999999723e+00 1.163288999999999973e+01 5.921039999999999637e+00 9.000000000000000567e-05 1.789709999999999912e+00 1.080260999999999960e+01 9.000000000000000567e-05 3.579050000000000065e+00 1.313216000000000072e+01 1.550140000000000073e+00 2.684940000000000104e+00 8.473269999999999413e+00 2.000000000000000096e-04 2.900000000000000017e-04 8.473250000000000171e+00 1.550059999999999993e+00 4.474310000000000009e+00 1.080269999999999975e+01 1.550049999999999928e+00 8.944600000000000328e-01 1.313222999999999985e+01 3.100010000000000154e+00 1.789709999999999912e+00 1.080260999999999960e+01 3.100010000000000154e+00 3.579050000000000065e+00 1.313216000000000072e+01 4.650050000000000239e+00 2.684940000000000104e+00 8.473269999999999413e+00 3.100109999999999921e+00 2.900000000000000017e-04 8.473250000000000171e+00 4.649980000000000224e+00 4.474310000000000009e+00 1.080269999999999975e+01 4.649969999999999715e+00 8.944600000000000328e-01 1.313222999999999985e+01 6.199919999999999654e+00 1.789709999999999912e+00 1.080260999999999960e+01 6.199930000000000163e+00 3.579050000000000065e+00 1.313216000000000072e+01 7.749970000000000248e+00 2.684940000000000104e+00 8.473269999999999413e+00 6.200029999999999930e+00 2.900000000000000017e-04 8.473250000000000171e+00 7.749889999999999723e+00 4.474310000000000009e+00 1.080269999999999975e+01 7.749889999999999723e+00 8.944600000000000328e-01 1.313222999999999985e+01 9.000000000000000567e-05 7.158920000000000172e+00 1.080260999999999960e+01 9.000000000000000567e-05 8.948259999999999437e+00 1.313216000000000072e+01 1.550140000000000073e+00 8.054149999999999920e+00 8.473269999999999413e+00 2.000000000000000096e-04 5.369510000000000005e+00 8.473250000000000171e+00 1.550059999999999993e+00 9.843529999999999447e+00 1.080269999999999975e+01 1.550049999999999928e+00 6.263670000000000293e+00 1.313222999999999985e+01 3.100010000000000154e+00 7.158920000000000172e+00 1.080260999999999960e+01 3.100010000000000154e+00 8.948259999999999437e+00 1.313216000000000072e+01 4.650050000000000239e+00 8.054149999999999920e+00 8.473269999999999413e+00 3.100109999999999921e+00 5.369510000000000005e+00 8.473250000000000171e+00 4.649980000000000224e+00 9.843529999999999447e+00 1.080269999999999975e+01 4.649969999999999715e+00 6.263670000000000293e+00 1.313222999999999985e+01 6.199919999999999654e+00 7.158920000000000172e+00 1.080260999999999960e+01 6.199930000000000163e+00 8.948259999999999437e+00 1.313216000000000072e+01 7.749970000000000248e+00 8.054149999999999920e+00 8.473269999999999413e+00 6.200029999999999930e+00 5.369510000000000005e+00 8.473250000000000171e+00 7.749889999999999723e+00 9.843529999999999447e+00 1.080269999999999975e+01 7.749889999999999723e+00 6.263670000000000293e+00 1.313222999999999985e+01 9.000000000000000567e-05 1.252814000000000050e+01 1.080260999999999960e+01 9.000000000000000567e-05 1.431747999999999976e+01 1.313216000000000072e+01 1.550140000000000073e+00 1.342336000000000062e+01 8.473269999999999413e+00 2.000000000000000096e-04 1.073872000000000071e+01 8.473250000000000171e+00 1.550059999999999993e+00 1.521274000000000015e+01 1.080269999999999975e+01 1.550049999999999928e+00 1.163288999999999973e+01 1.313222999999999985e+01 3.100010000000000154e+00 1.252814000000000050e+01 1.080260999999999960e+01 3.100010000000000154e+00 1.431747999999999976e+01 1.313216000000000072e+01 4.650050000000000239e+00 1.342336000000000062e+01 8.473269999999999413e+00 3.100109999999999921e+00 1.073872000000000071e+01 8.473250000000000171e+00 4.649980000000000224e+00 1.521274000000000015e+01 1.080269999999999975e+01 4.649969999999999715e+00 1.163288999999999973e+01 1.313222999999999985e+01 6.199919999999999654e+00 1.252814000000000050e+01 1.080260999999999960e+01 6.199930000000000163e+00 1.431747999999999976e+01 1.313216000000000072e+01 7.749970000000000248e+00 1.342336000000000062e+01 8.473269999999999413e+00 6.200029999999999930e+00 1.073872000000000071e+01 8.473250000000000171e+00 7.749889999999999723e+00 1.521274000000000015e+01 1.080269999999999975e+01 7.749889999999999723e+00 1.163288999999999973e+01 1.313222999999999985e+01 9.000000000000000567e-05 1.789709999999999912e+00 1.801379999999999981e+01 9.000000000000000567e-05 3.579050000000000065e+00 2.034335000000000093e+01 1.550140000000000073e+00 2.684940000000000104e+00 1.568445000000000000e+01 2.000000000000000096e-04 2.900000000000000017e-04 1.568444000000000038e+01 1.550059999999999993e+00 4.474310000000000009e+00 1.801388999999999996e+01 1.550049999999999928e+00 8.944600000000000328e-01 2.034340999999999866e+01 3.100010000000000154e+00 1.789709999999999912e+00 1.801379999999999981e+01 3.100010000000000154e+00 3.579050000000000065e+00 2.034335000000000093e+01 4.650050000000000239e+00 2.684940000000000104e+00 1.568445000000000000e+01 3.100109999999999921e+00 2.900000000000000017e-04 1.568444000000000038e+01 4.649980000000000224e+00 4.474310000000000009e+00 1.801388999999999996e+01 4.649969999999999715e+00 8.944600000000000328e-01 2.034340999999999866e+01 6.199919999999999654e+00 1.789709999999999912e+00 1.801379999999999981e+01 6.199930000000000163e+00 3.579050000000000065e+00 2.034335000000000093e+01 7.749970000000000248e+00 2.684940000000000104e+00 1.568445000000000000e+01 6.200029999999999930e+00 2.900000000000000017e-04 1.568444000000000038e+01 7.749889999999999723e+00 4.474310000000000009e+00 1.801388999999999996e+01 7.749889999999999723e+00 8.944600000000000328e-01 2.034340999999999866e+01 9.000000000000000567e-05 7.158920000000000172e+00 1.801379999999999981e+01 9.000000000000000567e-05 8.948259999999999437e+00 2.034335000000000093e+01 1.550140000000000073e+00 8.054149999999999920e+00 1.568445000000000000e+01 2.000000000000000096e-04 5.369510000000000005e+00 1.568444000000000038e+01 1.550059999999999993e+00 9.843529999999999447e+00 1.801388999999999996e+01 1.550049999999999928e+00 6.263670000000000293e+00 2.034340999999999866e+01 3.100010000000000154e+00 7.158920000000000172e+00 1.801379999999999981e+01 3.100010000000000154e+00 8.948259999999999437e+00 2.034335000000000093e+01 4.650050000000000239e+00 8.054149999999999920e+00 1.568445000000000000e+01 3.100109999999999921e+00 5.369510000000000005e+00 1.568444000000000038e+01 4.649980000000000224e+00 9.843529999999999447e+00 1.801388999999999996e+01 4.649969999999999715e+00 6.263670000000000293e+00 2.034340999999999866e+01 6.199919999999999654e+00 7.158920000000000172e+00 1.801379999999999981e+01 6.199930000000000163e+00 8.948259999999999437e+00 2.034335000000000093e+01 7.749970000000000248e+00 8.054149999999999920e+00 1.568445000000000000e+01 6.200029999999999930e+00 5.369510000000000005e+00 1.568444000000000038e+01 7.749889999999999723e+00 9.843529999999999447e+00 1.801388999999999996e+01 7.749889999999999723e+00 6.263670000000000293e+00 2.034340999999999866e+01 9.000000000000000567e-05 1.252814000000000050e+01 1.801379999999999981e+01 9.000000000000000567e-05 1.431747999999999976e+01 2.034335000000000093e+01 1.550140000000000073e+00 1.342336000000000062e+01 1.568445000000000000e+01 2.000000000000000096e-04 1.073872000000000071e+01 1.568444000000000038e+01 1.550059999999999993e+00 1.521274000000000015e+01 1.801388999999999996e+01 1.550049999999999928e+00 1.163288999999999973e+01 2.034340999999999866e+01 3.100010000000000154e+00 1.252814000000000050e+01 1.801379999999999981e+01 3.100010000000000154e+00 1.431747999999999976e+01 2.034335000000000093e+01 4.650050000000000239e+00 1.342336000000000062e+01 1.568445000000000000e+01 3.100109999999999921e+00 1.073872000000000071e+01 1.568444000000000038e+01 4.649980000000000224e+00 1.521274000000000015e+01 1.801388999999999996e+01 4.649969999999999715e+00 1.163288999999999973e+01 2.034340999999999866e+01 6.199919999999999654e+00 1.252814000000000050e+01 1.801379999999999981e+01 6.199930000000000163e+00 1.431747999999999976e+01 2.034335000000000093e+01 7.749970000000000248e+00 1.342336000000000062e+01 1.568445000000000000e+01 6.200029999999999930e+00 1.073872000000000071e+01 1.568444000000000038e+01 7.749889999999999723e+00 1.521274000000000015e+01 1.801388999999999996e+01 7.749889999999999723e+00 1.163288999999999973e+01 2.034340999999999866e+01