-2.825665424310000162e+03
-2.825628707400000167e+03
-2.825518406000000141e+03
-2.825335422520000066e+03
-2.825081092030000036e+03
