-2.090000000000000115e-04 4.944999999999999743e-03 -3.795999999999999895e-03 -5.789999999999999791e-04 5.258999999999999786e-03 -5.246999999999999928e-03 6.999999999999999895e-06 -5.231000000000000406e-03 6.739000000000000198e-03 -9.100000000000000287e-05 -4.776999999999999996e-03 5.913999999999999986e-03 5.209999999999999788e-04 5.053000000000000200e-03 -5.900999999999999995e-03 -2.420000000000000005e-04 4.786000000000000323e-03 -5.934000000000000039e-03 -4.539999999999999765e-04 -5.070999999999999987e-03 7.071000000000000028e-03 -9.299999999999999727e-05 -6.032000000000000035e-03 5.714999999999999594e-03 -9.330000000000000186e-04 5.053000000000000200e-03 -5.845000000000000369e-03 1.200000000000000030e-05 5.348000000000000323e-03 -5.191999999999999567e-03 3.649999999999999816e-04 -5.134999999999999808e-03 7.081999999999999754e-03 -2.489999999999999809e-04 -4.995999999999999573e-03 5.912999999999999853e-03 -2.730000000000000222e-04 5.701999999999999603e-03 -5.499000000000000415e-03 -9.759999999999999796e-04 4.995999999999999573e-03 -5.982000000000000338e-03 -3.300000000000000253e-05 -5.666000000000000029e-03 6.511000000000000294e-03 -1.092000000000000089e-03 -5.239999999999999866e-03 5.843000000000000103e-03 1.800000000000000046e-05 4.910000000000000302e-03 -4.943999999999999610e-03 -2.700000000000000035e-04 4.859999999999999737e-03 -3.883999999999999866e-03 -2.039999999999999984e-04 -4.666000000000000009e-03 6.726000000000000208e-03 -1.150000000000000035e-04 -4.369999999999999753e-03 5.290999999999999696e-03 -4.079999999999999968e-04 4.839000000000000419e-03 -4.954000000000000070e-03 4.530000000000000064e-04 5.021000000000000289e-03 -6.041000000000000363e-03 0.000000000000000000e+00 -4.433000000000000308e-03 6.709999999999999819e-03 9.680000000000000019e-04 -5.224999999999999610e-03 5.830000000000000113e-03 -1.930000000000000021e-04 4.792000000000000252e-03 -5.661000000000000233e-03 -4.420000000000000101e-04 4.629000000000000302e-03 -5.412000000000000144e-03 1.500000000000000038e-05 -4.243000000000000244e-03 6.045000000000000026e-03 2.509999999999999753e-04 -5.507999999999999875e-03 6.172999999999999668e-03 1.420000000000000092e-04 5.347000000000000190e-03 -4.886999999999999851e-03 -3.469999999999999777e-04 5.484000000000000159e-03 -5.872999999999999748e-03 9.879999999999999460e-04 -5.073000000000000252e-03 6.597000000000000433e-03 -1.029999999999999964e-04 -5.641000000000000181e-03 5.838000000000000307e-03 -5.400000000000000069e-04 5.291999999999999829e-03 -4.931999999999999752e-03 -5.500000000000000196e-05 4.683999999999999796e-03 -5.364999999999999977e-03 -9.970000000000000563e-04 -5.082999999999999845e-03 6.631999999999999874e-03 -4.569999999999999952e-04 -5.446999999999999585e-03 6.185000000000000393e-03 -1.479999999999999925e-04 4.910999999999999567e-03 -3.576999999999999885e-03 -6.329999999999999906e-04 5.141999999999999869e-03 -5.153999999999999727e-03 -4.300000000000000165e-05 -5.263999999999999582e-03 6.753999999999999587e-03 -1.210000000000000002e-04 -4.806999999999999641e-03 5.923999999999999579e-03 4.319999999999999838e-04 5.030999999999999882e-03 -5.708999999999999665e-03 -2.950000000000000148e-04 4.670999999999999805e-03 -5.932999999999999906e-03 -3.869999999999999742e-04 -5.117000000000000021e-03 7.074000000000000427e-03 -9.299999999999999727e-05 -5.982999999999999603e-03 5.700000000000000205e-03 -8.999999999999999754e-04 5.104000000000000030e-03 -5.739000000000000178e-03 1.250000000000000026e-04 5.243000000000000264e-03 -5.134999999999999808e-03 3.469999999999999777e-04 -5.191000000000000301e-03 7.002000000000000411e-03 -2.110000000000000059e-04 -4.963000000000000397e-03 5.896000000000000199e-03 -2.200000000000000078e-04 5.669999999999999693e-03 -5.446999999999999585e-03 -9.870000000000000301e-04 4.925999999999999823e-03 -5.986000000000000001e-03 -3.600000000000000091e-05 -5.713000000000000196e-03 6.568000000000000053e-03 -1.098999999999999934e-03 -5.295000000000000227e-03 5.908000000000000057e-03 -1.699999999999999987e-05 4.929000000000000221e-03 -4.925999999999999823e-03 -2.700000000000000035e-04 4.825000000000000296e-03 -3.941000000000000059e-03 -1.559999999999999972e-04 -4.669999999999999672e-03 6.739000000000000198e-03 -1.019999999999999992e-04 -4.383999999999999876e-03 5.258999999999999786e-03 -4.150000000000000043e-04 4.869000000000000064e-03 -5.017999999999999891e-03 4.600000000000000139e-04 4.995999999999999573e-03 -6.072000000000000140e-03 -4.699999999999999724e-05 -4.497000000000000129e-03 6.732000000000000137e-03 9.499999999999999981e-04 -5.294000000000000095e-03 5.827999999999999847e-03 -1.720000000000000066e-04 4.781999999999999792e-03 -5.612999999999999934e-03 -4.589999999999999896e-04 4.847999999999999879e-03 -5.202000000000000027e-03 1.200000000000000030e-05 -4.063999999999999904e-03 6.245999999999999816e-03 2.779999999999999811e-04 -5.556000000000000175e-03 6.279999999999999992e-03 1.420000000000000092e-04 5.341000000000000261e-03 -4.857000000000000206e-03 -4.360000000000000269e-04 5.627000000000000057e-03 -5.725000000000000054e-03 1.003999999999999901e-03 -4.950000000000000407e-03 6.784000000000000100e-03 -1.410000000000000120e-04 -5.662000000000000366e-03 5.922000000000000181e-03 -5.310000000000000050e-04 5.268000000000000113e-03 -4.899999999999999842e-03 6.600000000000000506e-05 4.844000000000000215e-03 -5.212999999999999752e-03 -1.016999999999999892e-03 -4.971999999999999857e-03 6.790000000000000029e-03 -4.490000000000000176e-04 -5.452000000000000249e-03 6.283000000000000390e-03 -2.439999999999999949e-04 4.860999999999999870e-03 -3.729999999999999809e-03 -6.009999999999999717e-04 5.171000000000000249e-03 -5.373000000000000172e-03 -8.600000000000000331e-05 -5.487999999999999823e-03 6.735999999999999800e-03 -1.010000000000000020e-04 -4.691999999999999990e-03 5.948000000000000162e-03 5.259999999999999919e-04 5.026000000000000086e-03 -5.873999999999999881e-03 -2.149999999999999947e-04 4.695000000000000388e-03 -6.127999999999999767e-03 -3.559999999999999797e-04 -5.329000000000000403e-03 7.066000000000000232e-03 -8.399999999999999535e-05 -5.866999999999999819e-03 5.768999999999999823e-03 -9.150000000000000147e-04 5.003999999999999768e-03 -5.807999999999999795e-03 6.000000000000000152e-06 5.253999999999999990e-03 -5.348000000000000323e-03 3.530000000000000152e-04 -5.380000000000000233e-03 7.006000000000000075e-03 -2.460000000000000164e-04 -4.820999999999999765e-03 5.951999999999999826e-03 -2.770000000000000110e-04 5.634000000000000119e-03 -5.512999999999999672e-03 -9.370000000000000074e-04 4.948000000000000141e-03 -6.006000000000000054e-03 -4.500000000000000283e-05 -5.551999999999999644e-03 6.498000000000000304e-03 -1.082000000000000062e-03 -5.373000000000000172e-03 5.934000000000000039e-03 3.800000000000000209e-05 4.862000000000000002e-03 -4.988000000000000246e-03 -2.840000000000000185e-04 4.838000000000000286e-03 -3.919999999999999873e-03 -1.410000000000000120e-04 -4.512999999999999651e-03 6.721000000000000411e-03 -7.700000000000000139e-05 -4.504000000000000191e-03 5.326000000000000005e-03 -4.119999999999999856e-04 4.764000000000000005e-03 -5.072000000000000119e-03 4.249999999999999763e-04 4.971999999999999857e-03 -6.068999999999999742e-03 -4.300000000000000165e-05 -4.359000000000000027e-03 6.738000000000000066e-03 9.100000000000000016e-04 -5.398000000000000020e-03 5.903000000000000261e-03 -1.949999999999999965e-04 4.937000000000000416e-03 -5.683999999999999816e-03 -4.629999999999999784e-04 4.688999999999999592e-03 -5.237000000000000335e-03 -3.000000000000000076e-05 -4.112000000000000204e-03 6.289999999999999584e-03 2.840000000000000185e-04 -5.557999999999999573e-03 6.196000000000000119e-03 2.049999999999999956e-04 5.434999999999999727e-03 -4.858000000000000339e-03 -3.319999999999999926e-04 5.496000000000000017e-03 -5.709999999999999798e-03 1.059999999999999961e-03 -4.967000000000000061e-03 6.799999999999999621e-03 -1.510000000000000112e-04 -5.634000000000000119e-03 5.845999999999999634e-03 -5.910000000000000539e-04 5.388000000000000428e-03 -4.913999999999999965e-03 -3.600000000000000091e-05 4.767000000000000404e-03 -5.191000000000000301e-03 -1.025000000000000086e-03 -5.004999999999999900e-03 6.847999999999999921e-03 -4.470000000000000232e-04 -5.433999999999999594e-03 6.191999999999999588e-03 6.480000000000000300e-04 -2.349999999999999930e-04 3.959999999999999762e-04 1.320000000000000101e-04 -4.266999999999999960e-03 1.344799999999999988e-02 -1.299999999999999886e-04 4.969999999999999592e-03 -1.640199999999999991e-02 -6.120000000000000223e-04 6.091000000000000060e-03 -1.585299999999999904e-02 3.190000000000000019e-04 -5.349999999999999938e-04 -1.178999999999999927e-03 5.060000000000000478e-04 -4.479999999999999608e-03 1.316600000000000062e-02 1.064000000000000059e-03 1.600000000000000131e-04 3.370000000000000057e-04 3.690000000000000246e-04 -4.707000000000000246e-03 1.386700000000000085e-02 -3.040000000000000167e-04 5.488999999999999956e-03 -1.630699999999999858e-02 -6.989999999999999686e-04 6.246999999999999949e-03 -1.584100000000000091e-02 5.029999999999999749e-04 -4.679999999999999915e-04 -1.322000000000000041e-03 2.259999999999999910e-04 -4.924000000000000425e-03 1.283100000000000039e-02 1.900000000000000105e-04 2.180000000000000134e-04 3.860000000000000041e-04 8.500000000000000611e-05 -4.689999999999999725e-03 1.398300000000000064e-02 -6.350000000000000392e-04 4.934000000000000018e-03 -1.634700000000000042e-02 -3.440000000000000132e-04 6.165000000000000341e-03 -1.580799999999999914e-02 5.540000000000000219e-04 -4.989999999999999861e-04 -1.160999999999999923e-03 -1.440000000000000036e-04 -4.481999999999999873e-03 1.313100000000000031e-02 4.719999999999999803e-04 -7.669999999999999951e-04 4.000000000000000192e-04 1.320000000000000101e-04 -5.752000000000000168e-03 1.267800000000000003e-02 -3.130000000000000187e-04 3.654999999999999829e-03 -1.602999999999999911e-02 -4.719999999999999803e-04 4.723999999999999901e-03 -1.596099999999999949e-02 4.800000000000000122e-05 -4.659999999999999971e-04 -1.531000000000000026e-03 -6.999999999999999387e-05 -5.401000000000000419e-03 1.207800000000000019e-02 9.300000000000000541e-04 -8.599999999999999789e-04 5.320000000000000293e-04 -1.359999999999999989e-04 -5.218999999999999681e-03 1.314300000000000017e-02 -3.809999999999999910e-04 3.343000000000000051e-03 -1.612900000000000097e-02 -5.890000000000000053e-04 5.111000000000000092e-03 -1.603699999999999917e-02 5.130000000000000011e-04 -8.790000000000000070e-04 -1.407999999999999963e-03 2.280000000000000126e-04 -6.073000000000000273e-03 1.217200000000000053e-02 3.370000000000000057e-04 -8.630000000000000518e-04 4.829999999999999767e-04 4.539999999999999765e-04 -5.342000000000000394e-03 1.308600000000000041e-02 -6.089999999999999494e-04 3.534999999999999948e-03 -1.607099999999999848e-02 -4.110000000000000155e-04 4.976999999999999653e-03 -1.590400000000000147e-02 7.709999999999999840e-04 -5.130000000000000011e-04 -1.600999999999999993e-03 4.389999999999999914e-04 -5.407000000000000348e-03 1.211399999999999977e-02 6.809999999999999647e-04 -1.540000000000000028e-04 7.380000000000000492e-04 2.700000000000000035e-04 -4.981000000000000184e-03 1.389100000000000057e-02 -3.699999999999999947e-04 5.608000000000000138e-03 -1.624799999999999855e-02 -5.320000000000000293e-04 5.039000000000000076e-03 -1.497500000000000046e-02 1.869999999999999917e-04 7.759999999999999971e-04 -5.540000000000000219e-04 1.630000000000000047e-04 -4.460999999999999688e-03 1.230900000000000050e-02 7.739999999999999485e-04 -3.379999999999999758e-04 9.619999999999999645e-04 5.760000000000000146e-04 -4.316999999999999657e-03 1.391399999999999929e-02 -2.750000000000000166e-04 5.268000000000000113e-03 -1.626199999999999868e-02 -7.010000000000000172e-04 4.599999999999999922e-03 -1.531399999999999949e-02 4.589999999999999896e-04 9.070000000000000371e-04 -5.389999999999999826e-04 1.979999999999999881e-04 -4.129999999999999991e-03 1.193299999999999916e-02 4.629999999999999784e-04 -2.420000000000000005e-04 9.219999999999999680e-04 -1.210000000000000002e-04 -4.239999999999999845e-03 1.390500000000000069e-02 -4.870000000000000197e-04 5.604999999999999739e-03 -1.640700000000000144e-02 -1.689999999999999879e-04 4.664999999999999876e-03 -1.523099999999999975e-02 7.410000000000000137e-04 8.040000000000000271e-04 -5.240000000000000517e-04 3.190000000000000019e-04 -4.529000000000000040e-03 1.239499999999999977e-02 6.430000000000000169e-04 -1.000000000000000021e-03 1.221999999999999996e-03 2.979999999999999793e-04 -4.916000000000000231e-03 1.327000000000000055e-02 -6.000000000000000152e-05 4.243000000000000244e-03 -1.601899999999999852e-02 -5.429999999999999714e-04 5.808999999999999928e-03 -1.496899999999999967e-02 2.139999999999999975e-04 -1.082000000000000062e-03 8.700000000000000051e-05 4.490000000000000176e-04 -5.187999999999999903e-03 1.271599999999999987e-02 1.031000000000000015e-03 -5.410000000000000312e-04 9.569999999999999514e-04 1.489999999999999897e-04 -5.385000000000000030e-03 1.354900000000000028e-02 -3.379999999999999758e-04 4.772000000000000200e-03 -1.607300000000000048e-02 -5.990000000000000316e-04 5.994000000000000196e-03 -1.506900000000000080e-02 3.910000000000000172e-04 -1.007000000000000083e-03 -1.079999999999999960e-04 1.640000000000000019e-04 -5.671999999999999958e-03 1.229399999999999937e-02 2.610000000000000015e-04 -5.630000000000000239e-04 9.309999999999999699e-04 2.079999999999999872e-04 -5.296000000000000360e-03 1.350600000000000064e-02 -6.459999999999999814e-04 4.197000000000000210e-03 -1.618100000000000094e-02 -3.849999999999999798e-04 5.987000000000000134e-03 -1.506900000000000080e-02 6.809999999999999647e-04 -1.139999999999999954e-03 1.699999999999999987e-05 6.399999999999999710e-05 -5.186999999999999771e-03 1.261999999999999927e-02 6.210000000000000242e-04 -6.040000000000000447e-04 2.616999999999999969e-03 1.510000000000000112e-04 -5.039000000000000076e-03 1.436300000000000077e-02 -1.969999999999999909e-04 4.203000000000000139e-03 -1.635700000000000001e-02 -5.370000000000000424e-04 4.294000000000000074e-03 -1.570399999999999921e-02 7.999999999999999638e-06 3.060000000000000111e-04 7.540000000000000044e-04 -8.299999999999999815e-05 -4.653000000000000018e-03 1.283399999999999992e-02 8.989999999999999511e-04 -7.429999999999999539e-04 2.736999999999999850e-03 -9.699999999999999963e-05 -4.473000000000000413e-03 1.473600000000000083e-02 -3.420000000000000188e-04 4.089999999999999886e-03 -1.640899999999999997e-02 -6.520000000000000188e-04 4.721999999999999635e-03 -1.574700000000000058e-02 4.939999999999999730e-04 -2.229999999999999994e-04 8.140000000000000534e-04 1.000000000000000048e-04 -5.294000000000000095e-03 1.273999999999999959e-02 3.069999999999999812e-04 -6.599999999999999964e-04 2.670000000000000064e-03 4.910000000000000085e-04 -4.445000000000000166e-03 1.476500000000000035e-02 -5.299999999999999807e-04 4.226999999999999855e-03 -1.635500000000000148e-02 -3.890000000000000228e-04 4.581000000000000003e-03 -1.572300000000000086e-02 8.289999999999999843e-04 2.310000000000000042e-04 6.920000000000000153e-04 5.280000000000000405e-04 -4.653000000000000018e-03 1.287100000000000050e-02 6.199999999999999999e-04 3.449999999999999833e-04 2.507999999999999813e-03 3.989999999999999949e-04 -5.101999999999999764e-03 1.414400000000000032e-02 -2.620000000000000258e-04 5.673000000000000091e-03 -1.548300000000000023e-02 -4.569999999999999952e-04 5.812000000000000326e-03 -1.504699999999999961e-02 9.100000000000000287e-05 6.080000000000000335e-04 6.549999999999999833e-04 9.899999999999999404e-05 -4.166999999999999697e-03 1.388400000000000051e-02 7.739999999999999485e-04 2.739999999999999923e-04 2.667000000000000100e-03 4.769999999999999934e-04 -4.478000000000000209e-03 1.432699999999999946e-02 -3.220000000000000206e-04 5.370999999999999906e-03 -1.549900000000000062e-02 -7.399999999999999894e-04 5.344999999999999925e-03 -1.520700000000000003e-02 3.480000000000000020e-04 6.509999999999999945e-04 5.540000000000000219e-04 1.179999999999999951e-04 -3.811999999999999850e-03 1.337700000000000000e-02 4.360000000000000269e-04 2.640000000000000202e-04 2.615000000000000137e-03 -7.700000000000000139e-05 -4.270000000000000358e-03 1.420399999999999961e-02 -4.620000000000000083e-04 5.642999999999999579e-03 -1.557399999999999930e-02 -3.269999999999999795e-04 5.256000000000000255e-03 -1.531000000000000069e-02 8.170000000000000179e-04 6.409999999999999682e-04 7.240000000000000342e-04 3.530000000000000152e-04 -4.179999999999999688e-03 1.384900000000000020e-02 5.940000000000000184e-04 -5.749999999999999903e-04 2.576000000000000165e-03 1.849999999999999973e-04 -3.962000000000000244e-03 1.519599999999999944e-02 -1.579999999999999916e-04 4.108999999999999805e-03 -1.607600000000000001e-02 -5.910000000000000539e-04 5.028999999999999616e-03 -1.571600000000000080e-02 2.460000000000000164e-04 -1.810000000000000085e-04 1.575999999999999927e-03 5.130000000000000011e-04 -4.504000000000000191e-03 1.376199999999999993e-02 9.970000000000000563e-04 -1.369999999999999961e-04 2.416000000000000179e-03 2.210000000000000050e-04 -4.308000000000000197e-03 1.566499999999999837e-02 -3.669999999999999760e-04 4.486999999999999669e-03 -1.593699999999999978e-02 -7.380000000000000492e-04 5.198000000000000363e-03 -1.566499999999999837e-02 4.409999999999999858e-04 -1.069999999999999988e-04 1.441999999999999922e-03 1.210000000000000002e-04 -5.091000000000000039e-03 1.329400000000000026e-02 2.730000000000000222e-04 -9.000000000000000567e-05 2.357000000000000154e-03 1.240000000000000054e-04 -4.292999999999999941e-03 1.560699999999999935e-02 -5.739999999999999660e-04 3.859000000000000017e-03 -1.609100000000000114e-02 -4.099999999999999912e-04 5.302000000000000289e-03 -1.549500000000000009e-02 6.089999999999999494e-04 -3.139999999999999888e-04 1.626000000000000058e-03 -1.210000000000000002e-04 -4.571999999999999675e-03 1.378599999999999964e-02 5.969999999999999829e-04 -1.969999999999999909e-04 3.180000000000000101e-03 1.410000000000000120e-04 -6.022999999999999708e-03 1.397100000000000078e-02 -1.910000000000000077e-04 5.519999999999999733e-03 -1.538800000000000064e-02 -5.450000000000000200e-04 4.988000000000000246e-03 -1.507400000000000059e-02 4.399999999999999886e-05 6.899999999999999667e-05 -1.879999999999999890e-04 9.000000000000000228e-06 -5.334000000000000200e-03 1.401600000000000068e-02 9.229999999999999923e-04 -2.889999999999999774e-04 3.286999999999999991e-03 -5.800000000000000034e-05 -5.551000000000000378e-03 1.441100000000000020e-02 -3.840000000000000097e-04 5.232999999999999804e-03 -1.537900000000000031e-02 -6.059999999999999849e-04 5.516000000000000070e-03 -1.499999999999999944e-02 4.380000000000000213e-04 -3.510000000000000208e-04 3.699999999999999811e-05 1.039999999999999936e-04 -5.958999999999999887e-03 1.406699999999999964e-02 3.080000000000000055e-04 -3.209999999999999963e-04 3.148000000000000190e-03 5.180000000000000143e-04 -5.558999999999999705e-03 1.437599999999999989e-02 -5.969999999999999829e-04 5.492000000000000354e-03 -1.533299999999999941e-02 -3.820000000000000153e-04 5.422999999999999869e-03 -1.511999999999999976e-02 8.379999999999999862e-04 1.099999999999999971e-05 -2.880000000000000073e-04 4.690000000000000158e-04 -5.303000000000000422e-03 1.400599999999999935e-02 5.360000000000000181e-04 -3.770000000000000022e-04 1.806000000000000097e-03 1.160000000000000007e-04 -4.832999999999999623e-03 1.412500000000000040e-02 -2.770000000000000110e-04 4.909000000000000169e-03 -1.606799999999999895e-02 -4.159999999999999744e-04 5.863000000000000156e-03 -1.501899999999999936e-02 9.500000000000000523e-05 1.090000000000000067e-04 9.510000000000000224e-04 7.799999999999999859e-05 -4.707000000000000246e-03 1.286400000000000043e-02 7.420000000000000380e-04 -4.760000000000000234e-04 2.021999999999999926e-03 5.429999999999999714e-04 -4.212999999999999731e-03 1.424100000000000019e-02 -4.800000000000000122e-04 4.684999999999999928e-03 -1.602599999999999858e-02 -8.379999999999999862e-04 5.373000000000000172e-03 -1.513399999999999988e-02 4.389999999999999914e-04 7.899999999999999579e-05 9.640000000000000131e-04 2.039999999999999984e-04 -4.283000000000000348e-03 1.236800000000000052e-02 4.389999999999999914e-04 -3.820000000000000153e-04 2.111000000000000029e-03 -6.299999999999999990e-05 -4.194999999999999944e-03 1.435499999999999970e-02 -4.429999999999999802e-04 5.102999999999999897e-03 -1.606399999999999842e-02 -3.170000000000000075e-04 5.388999999999999693e-03 -1.509199999999999951e-02 7.590000000000000175e-04 -6.000000000000000152e-06 1.082000000000000062e-03 1.949999999999999965e-04 -4.628000000000000169e-03 1.271399999999999961e-02