5.757009397703088342e-04 -1.622519405759969002e-01 4.224323821763558556e-03 4.720253601656834589e-04 1.615580348601381999e-01 2.483728686820511639e-03 -1.051127582196516048e-03 4.604525613499089277e-05 3.133956547294995589e-03 -2.614155855444800017e-03 4.549057552362207636e-03 3.914829057409791209e-03 5.098874162181609923e-03 1.480398594087392247e-04 3.093205534435602456e-03 -2.492095532689379313e-03 -4.369965978159921077e-03 2.261960478362617672e-03 -7.245124926361686500e-03 -1.049508580616814442e-04 3.065706463248675604e-03 3.657872367844349111e-03 -4.533959664000387392e-03 3.047213236020458391e-03 3.582877214849007879e-03 4.406041145246224200e-03 3.100083432701959338e-03 2.487474270037128878e-05 5.204360549618653158e-05 3.077000277917203014e-03 3.087388829136550669e-05 -5.095612981329491776e-05 3.096001982534284536e-03 -6.412587746627543457e-05 -1.195612632156856901e-05 3.090997561125301447e-03 3.087421319956815759e-05 -2.079562857532164983e-04 3.085004208453374919e-03 -6.112558615429565523e-05 -3.956227915931071385e-06 3.083997569872254201e-03 2.287351096531836867e-05 1.950440749150097813e-04 3.109998169024648547e-03 -3.212622674175962879e-05 1.004397622049485827e-05 3.099998552273374244e-03 1.787411622210717622e-05 3.204382364610630619e-05 3.092000276412570914e-03 6.873922004931048600e-06 -7.956111025722069769e-06 3.096000395590028844e-03 3.287718907843072521e-05 5.604274856409224614e-05 3.017000547028734526e-03 1.387388517117135386e-05 -5.495611650195702120e-05 3.096001346990869332e-03 -5.412468481660679526e-05 3.043454690892166169e-06 3.061997755694319083e-03 3.387550147598933180e-05 -1.895668509952852269e-05 3.057001651044661487e-03 -7.212469342098595760e-05 -7.956531214068099663e-06 3.061997178674397222e-03 2.587585075654923604e-05 1.104320773905347722e-05 3.049000899952385244e-03 -2.912455405551341091e-05 1.404339258149325287e-05 3.058998617762987739e-03 1.187356501603106267e-05 2.120440693484583364e-04 3.108997480074236503e-03 1.287666038276547337e-05 -2.029571223275115661e-04 3.025003404645013310e-03 -2.608749609717478379e-04 -1.904333564564833668e-05 -3.071010355909838813e-03 1.441078092254672693e-04 2.869624294842710449e-04 -2.641998202759555242e-03 1.271419878288835464e-04 -3.190496224475566737e-04 -3.492990302498274763e-03 -2.338949471657963226e-04 -1.650364380076887907e-04 -2.583007186947036422e-03 -2.258554642377944856e-04 1.779499024768288094e-04 -3.546011723257893634e-03 4.691247291111131897e-04 1.956206187403701942e-06 -3.062980927428993715e-03 -4.387337362269018464e-05 3.959560548906927821e-04 -3.102007403228168245e-03 1.111248641077342751e-04 1.795644396502845254e-05 -3.065995732335119808e-03 -5.887744920326403505e-05 -3.880427281727227579e-04 -3.016996898753392543e-03 -5.767873210084579691e-03 2.696038084213979940e-05 -3.113235257775014229e-03 2.870033245030535925e-03 8.559864104784472259e-04 -7.998952665791445125e-04 2.903218388542546172e-03 -8.250785353159299611e-04 -5.378870085714038303e-03 -4.140460213012891284e-04 3.161017209596021001e-03 1.190938324550166148e-03 -4.507026669789196676e-04 -3.184104037655009420e-03 -7.362973216260340452e-03 8.721276943460243552e-04 -7.045144338201350114e-06 -3.135964389258261240e-03 -1.793269715576560196e-05 -2.190234784909083471e-04 -1.656997626504776340e-03 4.712621654286328711e-05 -2.304398796412664911e-05 -3.099997757149682530e-03 -2.481613669236127479e-05 1.669360493453895253e-04 -4.512003381513429029e-03 2.512603411339418716e-05 3.956100148043689346e-06 -3.094999035812668990e-03 -1.287315143828838091e-05 3.955846345990350259e-06 -3.115000583186419442e-03 -5.874293194761474474e-06 1.956237843489052005e-06 -3.087000269810963402e-03 1.812373102852822426e-05 -2.504310041151934713e-05 -3.038998909755543688e-03 2.412909601295931423e-05 1.395503759537948973e-05 -3.169999218241435074e-03 -3.087359935259930343e-05 3.956016395670152327e-06 -3.104001316171965241e-03 -1.487267375657826348e-05 -1.004432222015033759e-05 -3.127000466128277908e-03 2.812656348182613513e-05 3.955913487715498903e-06 -3.107998913638030953e-03 -7.874744256636747480e-06 -2.043604634366394567e-06 -3.076000294551837523e-03 -3.198804609366737514e-05 -7.500415738619428934e-05 -2.950002394607441629e-04 5.500041499851798083e-05 9.999815156249678932e-06 -9.997902121527274611e-06 -4.000974005834027539e-05 4.200343398649932961e-05 2.399977754767860974e-04 1.700030351162391319e-04 -2.400119644157927733e-05 -7.499273711926707621e-05 -4.700052847342089859e-05 1.570002636297177412e-04 1.599586019625959151e-05 -1.129949482463398570e-04 -1.530017120860213545e-04 -1.270024321403066944e-04 -4.000580345760844923e-05 2.500205874206289254e-05 1.429980165889360917e-04 3.007719743478564890e-06 2.999731804466353993e-05 -1.890003029946565861e-04 5.100008296652759572e-05 1.999931711403698075e-06 -1.997951590260789709e-06 -1.433243241240371706e-03 -2.366692064250578917e-02 5.518277187018804340e-03 2.889993486186499469e-03 5.000005587863415017e-06 1.601176122221739835e-04 -1.464804458981496795e-03 2.260393923037827199e-02 -4.367380126152742466e-03 1.228997920112170732e-02 1.809976643458134030e-04 5.144978926072222300e-04 -5.974960733244860309e-03 -1.495801307068982643e-02 -1.252031234935622409e-03 -6.322064475976798409e-03 1.514903153194081115e-02 1.874527782097478975e-03 1.932925835626445044e-03 1.754024786102005833e-03 1.855053843883682071e-03 1.910060465688158708e-03 -1.719023017242724471e-03 -1.517897850187836838e-03 -3.848003300681523530e-03 -6.995838628661873181e-06 8.084340533395002347e-05 -1.000023807313948931e-05 -4.399992127662592008e-05 5.000216608433398914e-06 3.999729055125088187e-06 1.800009611076831427e-05 6.999907677154868429e-06 -3.002127592703771039e-06 1.430007821133173946e-04 5.499785036614292797e-05 4.399978225498357752e-05 -1.799996356103943774e-05 5.002046912543549144e-06 -4.099810016585550516e-05 3.399937992082809171e-05 -4.600215155609214344e-05 -7.002208347417976406e-06 -6.399924308942072585e-05 5.300062228163536726e-05 -2.599791383769448977e-05 -4.000071688342637699e-05 -5.200049158325122751e-05 -6.400391619972087135e-05 -8.998588818983848680e-06 9.599752137615829347e-05 8.799830843251468348e-05 -2.799948761122910825e-05 4.100398037416180965e-05 -2.631784608372209414e-02 -2.176848643473119026e-04 2.077293142080212374e-02 1.339247764321334008e-02 -1.769383344675306072e-02 1.248779622409789888e-02 1.292382176911025492e-02 1.740540484791254852e-02 2.926927952581911963e-02 1.554885259566583930e-03 4.003104964833515550e-02 3.587495767538731797e-03 1.697450105121480618e-03 -3.821847212606783312e-02 3.732661100996980535e-02 -3.251858457572715660e-03 7.330145597278646017e-05 2.108286656193756464e-02 -1.028782317321213797e-03 -2.376727463214391677e-03 1.916599182169213128e-02 1.968143024371004236e-03 -4.703170015508004088e-06 2.104508023068126996e-02 -9.349288013331291019e-04 2.286324736245389910e-03 2.285292953511365577e-02 5.614599157593920834e-05 9.029732044009426532e-05 2.097400102559240573e-02 -5.786012118193313201e-05 3.229952219901221870e-05 2.112299720558714899e-02 -1.848821182785715975e-06 5.829555109929077821e-05 2.084599911759045868e-02 7.112639460303474671e-05 -2.669590012907415647e-05 2.145300329475821957e-02 -3.183210218123838799e-05 -6.771028082760730351e-05 2.043299968274704670e-02 -2.485342423574040999e-05 -4.770285714582630620e-05 2.095699968375062602e-02 4.116160329161167562e-05 6.291873742289922113e-06 2.058900160606966581e-02 1.460910113118861285e-07 -4.270270658768990043e-05 2.096900063087193261e-02 -2.087005007040364574e-05 -1.069706156323739205e-05 2.136599932167657437e-02 -5.185957225163352309e-05 5.299319014622110090e-06 2.110899783272488298e-02 5.013669466723590036e-05 2.230054350447382476e-05 2.120100174514419691e-02 2.145331418015637779e-06 -2.470243877738491757e-05 2.098800045709622863e-02 5.413742685546501680e-05 2.130028517227347646e-05 2.118300192222209721e-02 6.014310815377171522e-05 -5.570171858708718724e-05 2.104200325836606475e-02 -1.098597123882385617e-04 -1.770059303589609291e-05 2.111199579700128934e-02 -4.185656442776240234e-05 -5.370175214404381762e-05 2.103399907649115830e-02 1.613987248810336723e-05 2.429946425810317515e-05 2.112300033235223889e-02 -1.086399202645515925e-05 8.130084646160801122e-05 2.121899842466749841e-02 -5.431060052739782084e-04 -9.243110884766621207e-04 -2.197200903146442549e-02 -4.981635563296218363e-04 8.267093913818805880e-04 -2.052503202563508988e-02 1.017865675658567032e-03 -1.030220205770916601e-05 -2.125895842535444752e-02 -1.270099675327466052e-03 -1.223125042106583231e-04 -2.211205000595934528e-02 2.407864998731445213e-03 6.269696477059138941e-05 -2.124090285836486083e-02 -1.140172951615955367e-03 2.687130132366454633e-04 -2.030505025743400277e-02 8.218628715432020008e-04 -5.530108449584138577e-05 -2.119096576870512297e-02 -4.151290471069999711e-04 -9.163031640688010107e-04 -2.140600393314374614e-02 -3.841423244114842441e-04 8.477019154868175059e-04 -2.104602768070677060e-02 1.501936312418938966e-03 -3.913272787089622294e-04 -2.300093331311526754e-02 1.504790847814157194e-03 4.797236029618011897e-04 -1.941194554312102027e-02 -3.008136148738627547e-03 -4.298411714998906945e-06 -2.121412245260945531e-02 -9.821025261317352893e-04 -3.604312686829139710e-03 -2.210898891138462011e-02 2.075865475853321679e-03 -5.630297375182335973e-05 -2.125491469052056409e-02 -1.097166015047781277e-03 3.456711433866729334e-03 -2.041409370504601237e-02 1.011866908283754135e-03 5.569739147754868003e-05 -2.128795960538498733e-02 -4.871720876919753891e-04 1.247121616875837807e-04 -2.032902162509797259e-02 -5.220947283533053677e-04 -9.631480540764301708e-05 -2.223301991527208005e-02 3.685436939943490605e-05 6.702507486916984357e-06 -2.098099861378980094e-02 -3.714942149517797958e-05 1.703883964105359637e-06 -2.088800155633041902e-02 -6.148881963513898715e-06 1.470367537857425507e-05 -2.090100047828287455e-02 -1.614461096845962502e-05 8.702194540627545088e-06 -2.100600080032719724e-02 3.852745269664263748e-06 -3.929691373555337780e-05 -2.094199930543702223e-02 -1.814843640002275350e-05 -4.029648535347160767e-05 -2.091300018714494294e-02 3.985178363609664785e-05 3.270341251421066516e-05 -2.091699886030859434e-02 -3.114730563358339513e-05 -1.042968863241351712e-04 -2.094199980911218284e-02 -2.114765714161597363e-05 1.227032901343587791e-04 -2.092900262026806471e-02
5.867014229762137524e-04 -1.621549407263976061e-01 4.214322894459160765e-03 4.700262183893137561e-04 1.614580345356249613e-01 2.460730023176536593e-03 -1.068127181242603703e-03 3.804512766877840059e-05 3.123955968471930130e-03 -2.617156098983778028e-03 4.550057639777867549e-03 3.920828921063896494e-03 5.114874483233618208e-03 1.420397334590427414e-04 3.085206271043238260e-03 -2.508095589851992019e-03 -4.390965951452070921e-03 2.262960124561102810e-03 -7.254125401683553763e-03 -8.795068088288545652e-05 3.077705855727881374e-03 3.665872210439368329e-03 -4.526959613553880116e-03 3.051213462539204956e-03 3.582876448205209088e-03 4.415041414623428230e-03 3.119083305084425529e-03 2.587478733824933561e-05 5.704359053489096201e-05 3.076000247750166911e-03 2.187315532370989651e-05 -5.095586756601298308e-05 3.114001616029891950e-03 -5.612602781909488501e-05 4.043924124030652634e-06 3.094997660044176806e-03 2.887437921888094883e-05 -2.039563408988088935e-04 3.081004070304337039e-03 -6.512599100865770155e-05 -9.560830062952496599e-07 3.093997364446263339e-03 2.687380306004223028e-05 2.040439725375503273e-04 3.102998204314688906e-03 -3.212599025245442574e-05 4.389115473079299648e-08 3.093998694056586656e-03 1.087365967936449493e-05 2.104398508393731546e-05 3.103000147311785455e-03 1.487419920844105717e-05 -1.795621653325074702e-05 3.089000863140979863e-03 1.687474192343300336e-05 5.104361176025658725e-05 3.076999966328157650e-03 2.587169015372537122e-05 -4.995536029746533679e-05 3.150001764702067657e-03 -4.912664020464782989e-05 2.044131310189632375e-06 3.109997973431717373e-03 2.787281703981892909e-05 -1.495574466746085808e-05 3.123001349947147464e-03 -6.712679993878473486e-05 6.044202114898646394e-06 3.113997183741625072e-03 3.187349677858704192e-05 2.104402535219949329e-05 3.107001002445940446e-03 -4.312668328118471139e-05 -9.558592096895055451e-07 3.110998260289184972e-03 1.687176859348263924e-05 2.060446892570783951e-04 3.152997768704170894e-03 1.387503076476212841e-05 -2.039565559985923645e-04 3.065003459506443918e-03 -2.628735670586468398e-04 -7.043816125908107574e-06 -3.105010607453096566e-03 1.341088374412169012e-04 2.999620828680379242e-04 -2.666998794255751731e-03 1.351440779058382397e-04 -3.020503517808032683e-04 -3.543990217706035391e-03 -2.258933206895515338e-04 -1.680370113831701538e-04 -2.623006818609753110e-03 -2.318543718222991663e-04 1.689495243752382433e-04 -3.573011839958029848e-03 4.661265208305618679e-04 1.955584713396187686e-06 -3.106981049550644382e-03 -5.187154744684235988e-05 3.879554231546772001e-04 -3.147007615531037441e-03 1.051265187792548884e-04 -1.044132624689086352e-06 -3.106995707244607045e-03 -4.487529727894293751e-05 -3.960434905570167229e-04 -3.069996215190099863e-03 -5.784872896057362789e-03 1.196028073222371798e-05 -3.121235737355594966e-03 2.888033648306139161e-03 8.509862546070668483e-04 -8.098944627057110077e-04 2.905218620328751684e-03 -8.410786219470813875e-04 -5.384869777422542601e-03 -4.190459766584347327e-04 3.166017199332702391e-03 1.189938050058023025e-03 -4.377018063670472204e-04 -3.177104345568367797e-03 -7.383972786114099095e-03 8.651272550418984478e-04 3.955017097411809538e-06 -3.124964830269843369e-03 -3.293294225193816552e-05 -2.200233816790930254e-04 -1.650998223145357102e-03 6.412623063308625323e-05 -5.044001276875905209e-06 -3.099997320094955919e-03 -2.281629957738012132e-05 1.669361044905786674e-04 -4.508003300075445405e-03 2.812582737241197894e-05 -4.383131156471638327e-08 -3.089998856943709619e-03 -7.873439622609409525e-06 -4.405832401964080202e-08 -3.108000322877617089e-03 -1.087507002086863859e-05 -2.043488863015021224e-06 -3.068000416721827599e-03 1.812311786520759006e-05 -2.804288774428646152e-05 -3.023998867236197315e-03 1.912865122216013815e-05 1.795519746570601813e-05 -3.158999478566969915e-03 -2.887409662364659907e-05 -7.043815035668874623e-06 -3.092001078786019846e-03 -5.873073136708107369e-06 -4.418749017022164814e-08 -3.117000241427548505e-03 3.012578900063363354e-05 2.956181299935900460e-06 -3.088998818036227650e-03 -1.587510760326769926e-05 1.956529229357875516e-06 -3.067000677038066517e-03 -3.399239616972840681e-05 -6.600263879700542756e-05 -1.880004486017846147e-04 5.999735466278223082e-05 2.000874576727630391e-06 6.500241483511616731e-05 -3.201277532221263194e-05 6.600449105476285190e-05 3.149977609075519389e-04 1.579974743933006012e-04 -9.992446899793059386e-07 6.200644801460480069e-05 -7.100586053283632917e-05 1.600021397125156355e-04 1.469948402407649955e-04 -8.299873374219595616e-05 -1.510004170411388842e-04 -3.400123895675278370e-05 -2.500904157289450088e-05 -1.996832954323843979e-06 2.219990101278781775e-04 -1.599543846907483863e-05 9.984246147570026338e-07 -1.120006656072663098e-04 4.699755200917658636e-05 -5.999186132492666734e-06 6.000199889080737992e-05 -1.429233680365669425e-03 -2.346992392072836525e-02 5.287274557097543237e-03 2.871999264642842442e-03 -1.993564643298225818e-09 1.811695026767418110e-05 -1.449801298514830387e-03 2.242793807024965128e-02 -4.448377019978307090e-03 1.222098895380762870e-02 1.549943157042820937e-04 2.744954517134489064e-04 -5.939953433223535591e-03 -1.484001560757636576e-02 -1.429031482517383348e-03 -6.283058112663018023e-03 1.500702924714881169e-02 1.715531383600891243e-03 1.934932560048402504e-03 1.761022445199073028e-03 1.690053826234423715e-03 1.909064917581298733e-03 -1.702024561841136447e-03 -1.626898131829340515e-03 -3.843000079821442920e-03 -1.996962589980404456e-06 1.843538122826543240e-06 -2.499998827562532574e-05 -8.900000877171460501e-05 -1.999756198470138048e-06 3.700012056468525440e-05 -2.000071504042236125e-06 -2.998464970192955323e-06 -1.400004144283926056e-05 1.030000534849486848e-04 2.997969595658450654e-06 2.299987311696283855e-05 -5.999975474920628163e-06 3.001021643367690642e-06 -1.599812131809334623e-05 5.899937452119927280e-05 -4.500148797983050553e-05 -9.001592048144595602e-06 -5.699945419106454040e-05 3.800044160953284562e-05 -3.699770238863615693e-05 -3.000077916045358845e-05 -5.700108128560019084e-05 -4.400222080394333599e-05 2.400081422815636162e-05 5.499786796509974538e-05 7.700015811805532569e-05 -6.000117001280590355e-06 -3.996779424164822772e-06 -2.603683843543943416e-02 -1.226877214487463784e-04 2.058694151664666044e-02 1.322148408048210919e-02 -1.748183549626257383e-02 1.233378625528966030e-02 1.281782932366009285e-02 1.732840227967016866e-02 2.908227630127052307e-02 1.632886630539813998e-03 3.970204902018280996e-02 3.547503608286483711e-03 1.678463617478905944e-03 -3.807147677570039968e-02 3.699760815244824974e-02 -3.305851426951910300e-03 3.299031325242490826e-06 2.090886535561679513e-02 -9.907782640245306385e-04 -2.296728882400255779e-03 1.906799223495449919e-02 1.956148179472594773e-03 -2.570496119744822031e-05 2.091808003988214482e-02 -9.629239485027643640e-04 2.243323056838174116e-03 2.273292900468520950e-02 1.510534937601836261e-07 2.295577894534635076e-06 2.084799999298505430e-02 -5.854775066399454189e-06 -4.702389982045808756e-06 2.099099984777135983e-02 8.157732488460336947e-06 3.293246472025007899e-06 2.068400030472655748e-02 2.413010102203109046e-05 -2.569715350773369000e-05 2.136200136678504530e-02 1.417199574751674085e-05 1.728827954425958473e-05 2.033400035088833366e-02 -3.084874522704881937e-05 -7.044687212589127996e-07 2.084299877317661101e-02 -2.283408651485340903e-05 -1.709578991458107637e-06 2.048299911345584021e-02 5.515153739678238244e-05 -3.704635303193430899e-06 2.083600231770960445e-02 -2.586307113114495631e-05 9.300517946720046427e-06 2.119499883467601195e-02 -9.285204042937298221e-05 3.296728225523930033e-06 2.092399619169749148e-02 4.914262815710465155e-05 7.298474330859123002e-06 2.105500191722551803e-02 4.315153035457380967e-05 -1.270462590633225549e-05 2.083600195665926205e-02 4.314675820553892459e-05 2.929704706928652202e-05 2.095400136108350325e-02 3.614985453735124237e-05 -2.070403913494278089e-05 2.087700178499729900e-02 -7.485236307672831749e-05 7.296827553552782658e-06 2.093199686795431738e-02 -2.084791754775594655e-05 -8.770478845394786844e-05 2.082100041387099226e-02 2.114746377383388377e-05 -5.703190901586183867e-06 2.093600096146323170e-02 -1.285674214812735826e-05 8.329832437982402800e-05 2.104099831503573881e-02 -4.701176553876538003e-04 -8.773070766128503086e-04 -2.168500672546397334e-02 -4.791796982280868808e-04 8.577150050865877231e-04 -2.012803169181863472e-02 9.468506168423853871e-04 -2.969006817058174676e-07 -2.088896145865646453e-02 -1.228110905719817210e-03 -1.633086381986387410e-04 -2.183704771465093744e-02 2.431852077643099387e-03 -5.298573831126395122e-06 -2.092490091727026991e-02 -1.202185689401683889e-03 1.747174710862413468e-04 -1.999405144970611142e-02 8.388515566455748444e-04 3.702857792182422881e-06 -2.091196591319805648e-02 -4.141432852725292408e-04 -8.462981884526812968e-04 -2.105500488519262622e-02 -4.151536447792960097e-04 8.477058811868094226e-04 -2.076802894331158250e-02 1.450923999071103638e-03 -4.633229712524954830e-04 -2.269993436935951320e-02 1.487781705987183730e-03 4.537267921015182190e-04 -1.918794586696186827e-02 -2.938146990726584092e-03 -1.729469522985265824e-05 -2.094811941808622652e-02 -1.049112994441360903e-03 -3.556308976502032225e-03 -2.185099232045412815e-02 2.106854734170136596e-03 6.700759084715935635e-06 -2.098991432161962517e-02 -1.059177525731291088e-03 3.525715430599802355e-03 -2.013009313618335100e-02 9.318543287198552362e-04 7.701820883051977484e-06 -2.097996218280674327e-02 -4.571822710611541957e-04 1.207156826469431223e-04 -2.007902034699378391e-02 -4.711089055165165631e-04 -1.043099114668540663e-04 -2.188501772541006848e-02 -7.148231212817802424e-06 1.370344931694541129e-05 -2.091700050481109033e-02 -3.115129936023582627e-05 -4.295468554679998750e-06 -2.084200122698149152e-02 3.385013756885587981e-05 1.070398432621997999e-05 -2.087699879276008405e-02 -2.148765289325875016e-06 7.703629713909220333e-06 -2.090400021615233458e-02 -4.150200703522805036e-06 -5.295872495950204364e-06 -2.086900011331564719e-02 -5.151582076959843902e-06 -1.295389668314944764e-06 -2.083500021077916084e-02 3.584976324390210276e-05 7.041103613940526004e-07 -2.086799856954911492e-02 -2.414969565675539130e-05 -1.402960694893479643e-04 -2.088399901372066034e-02 -1.414977776539631332e-05 1.187040218991478399e-04 -2.087700227855939297e-02