6.208817622727924070e-04 -7.702186814676990336e-04 1.256760363196579855e-01 4.679845715395997835e-04 8.900052478750406166e-04 3.960064387807157708e-04 -1.070142601093578612e-03 1.070505167900527409e-04 3.503954908411301573e-03 -9.961307929698683897e-04 -4.995369522987682260e-05 3.210960147935520721e-03 1.966856466710486563e-03 -1.959516201162057620e-04 3.521082873482669906e-03 -9.780960980954971334e-04 -1.529658171506642422e-04 2.356962342014354977e-03 -8.991430264659964209e-04 8.405052467798237255e-05 3.513962197756106444e-03 3.619045880869802326e-04 9.320331902362878488e-04 2.361001525077770918e-03 5.378584174948029427e-04 -8.259513518189095160e-04 3.461033615433184527e-03 5.882079469530688945e-06 -4.295895997606552258e-05 2.895000851277748383e-03 5.987169482696669774e-05 -4.395538691993950336e-05 3.150003064144424759e-03 -7.413046015710165549e-05 -9.195454474825676486e-05 3.201998288034682213e-03 5.867287668113859309e-06 4.804621491006820999e-05 3.259999560761969381e-03 3.186920701104440387e-05 5.504552819508040542e-05 3.213000520303445438e-03 -4.613552988743430973e-05 -1.395278027779667089e-05 3.327998322235833483e-03 4.086857425092199018e-05 2.704573381786817092e-05 3.228001283754538403e-03 2.287018823653671237e-05 6.004519497445303771e-05 3.189000082949278517e-03 -6.812969346831659521e-05 3.045209521668025450e-06 3.184997185488062585e-03 -1.814186440530040134e-05 -1.757951072334839509e-03 3.450024188325740739e-03 -6.975094511576972192e-06 -2.000867132777297286e-05 -6.120000009217742894e-04 1.784467418043282150e-05 -1.787946421847207016e-03 3.780026079302517376e-03 2.389478281451938539e-05 7.036616630605138203e-06 2.584000875654000190e-03 1.486847357135072508e-03 9.100522291703155983e-04 3.766047646639987447e-03 -1.523152493156543002e-03 8.900545292795797314e-04 3.761925360437114348e-03 -1.513153474382864742e-03 8.850548617172109608e-04 3.785925838512132439e-03 1.545843046920703304e-03 8.660536716464912283e-04 3.871050672894188298e-03 -3.304380462645322949e-05 1.401528114527260907e-05 1.075998456722976598e-03 -1.620889326338235611e-02 -8.871375055263402282e-03 -2.734953428863329608e-02 1.580508698530734557e-02 -9.307393373427792771e-03 -2.687222447024326805e-02 4.171051995311358344e-04 -1.330369902747983925e-04 -2.585981131358602164e-03 -1.437896601392484562e-03 3.209652135604567410e-04 -2.533063105291305950e-03 -2.389934921828300012e-05 1.819762176833784190e-02 -2.667925900016010141e-02 1.472075620888038021e-03 7.839727318515631515e-04 -1.841951172561394519e-03 1.800830782342000599e-04 -1.549029488819553138e-03 -2.069970706966919437e-03 1.630874237403327179e-04 3.069695176808048343e-04 -2.140997713084382293e-03 -3.339211374352945259e-04 2.419728699956779771e-04 -1.932017029987047850e-03 -3.955559724856937479e-03 2.647850530009940653e-03 -1.076119862440126987e-02 -2.858722144576727065e-04 3.679558332225197313e-04 -3.131016860669802709e-03 4.245427059826148777e-03 2.472848659748419237e-03 -1.043986219189105627e-02 -2.905705929382895367e-04 -4.722150566703569967e-03 -1.063594489248137313e-02 -1.180739400223373200e-03 -1.006090082448559981e-03 -6.419033822528028531e-03 1.479257362068111051e-03 -5.100909034445499013e-04 -6.329932537317471686e-03 -1.408764475942774895e-04 -4.610430325823582087e-04 -3.042999202862281451e-03 1.551150205230427597e-04 -1.240402019793953789e-04 -2.826991927597432511e-03 -8.749057962515113332e-06 1.324912997783246138e-03 -6.137019146319308734e-03 2.127769482102455651e-06 3.595552268632405641e-05 -3.137000426041632560e-03 -1.287128765754838303e-05 4.395520834116654554e-05 -3.160001150255126005e-03 1.613814148112881818e-05 -8.304813195703390424e-05 -3.393998168556957087e-03 -4.586602526391618046e-05 3.953391070674932928e-06 -3.290001926811826367e-03 5.712839119413312320e-05 -2.044747219359498107e-06 -3.152997647624935715e-03 1.347429338585351247e-07 4.895309984799870834e-05 -3.308000691635298689e-03 -1.486560089257339290e-05 -7.804680332748370778e-05 -3.301999501877682115e-03 1.151383207873841178e-04 4.195176215815449175e-05 -3.395995909411271291e-03 -9.086168220103472710e-05 -1.404809071678730951e-05 -3.397003503950917023e-03 -7.514149350454852390e-05 -1.482530289012908356e-02 -2.136779288957762687e-02 2.926024777818093947e-03 -1.531011336325851591e-03 -6.378591440406807022e-04 -2.873979450721637127e-03 -1.425005292112524729e-03 -5.320968279186221372e-04 -1.307112928793315379e-02 7.337709084034685011e-03 -2.124163631964851723e-02 1.296487550890241917e-02 7.458687053310309595e-03 -2.135657782697039306e-02 1.309944611734588230e-04 2.070018822979864399e-04 1.400023995043147673e-04 -2.919998424843761337e-04 -2.669998989383640369e-04 -9.008105017313927434e-06 2.002963927660192131e-05 3.266990555776809121e-03 -6.650455037180420630e-04 2.930001641075675621e-04 -2.060003428194694466e-04 -7.985148163911797415e-06 -1.540015562403140382e-03 6.130067918036558776e-04 3.939285985540131978e-04 1.744978208626532176e-03 8.780064597262358895e-04 5.520586092957359544e-04 -2.127044173163965019e-04 1.857897760374965096e-03 -7.223035009111321118e-03 -1.931703852532977699e-03 -7.491018007707307127e-04 -7.287068046765536600e-03 3.009868496286384346e-04 -8.799958971877477670e-04 3.060247331235801363e-04 1.622292383039362386e-03 -1.340103435078064762e-03 -7.205914945877756224e-03 3.339755241315844067e-04 -1.665992194187202379e-03 5.690372203892678097e-04 -9.070188237046645846e-04 6.610074445636745242e-04 4.749536942448261416e-04 5.699841351544565789e-04 6.450052531009037695e-04 4.020140658540015768e-04 1.310038002502189342e-04 1.699857889082099987e-05 -9.299490650403001413e-05 -8.599403747239453511e-05 -3.000201679522464002e-05 -1.470030765236410362e-04 -4.499499678437000655e-05 -7.001708633296978750e-06 -1.230017330796153731e-04 7.100329127699213404e-05 -9.001203993244189308e-06 -8.099698114440204665e-05 -2.199347686157913868e-05 -9.400227956745712805e-05 -1.619995629983637139e-04 -5.799457313512577846e-05 -3.800185440697079664e-05 -1.340018229297868348e-04 3.600310107253299353e-05 1.119989226439906213e-04 -7.400012189007784767e-05 -6.499471718193500919e-05 3.799822195531744504e-05 -1.290031854904161428e-04 3.000544324693024320e-05 -1.700192331274955521e-05 -1.339985372279213830e-04 3.286930870663522936e-02 -1.581313754080075282e-02 -7.884437346040128192e-03 -2.698682957488665601e-03 1.676240356027952410e-03 1.680386635759114483e-02 -3.020196197970551402e-02 -1.719799427094968400e-02 -1.264986020794302973e-03 -1.104859096559123247e-03 3.545296147572116197e-02 -2.778547638206262278e-03 -2.386879330039715942e-04 -3.319761201016257525e-03 1.683003736296700623e-02 1.335105446812695842e-03 4.203105251056970084e-04 2.197604842796757954e-02 -5.789292558987985430e-05 -1.297689418986525253e-03 2.190301606128747247e-02 -1.039532372426549229e-04 -1.076680596844414032e-04 2.340699731519168061e-02 1.660439881811597528e-04 1.973327780327058755e-04 2.348100398553483112e-02 1.731547518945536067e-04 -6.705847742271091193e-06 2.075700716537676530e-02 3.214356869337348040e-05 6.429817572454952200e-05 2.103300041685898097e-02 -1.838373558021232058e-04 -1.670831870393577357e-05 2.056299276999089265e-02 8.916172389713617266e-05 1.082918219703962991e-04 2.058800211453957335e-02 7.151629039747634740e-06 -4.270464024883238827e-05 2.083300091604431414e-02 -7.084378670423589373e-05 -1.167061954363435853e-04 2.071899878907839873e-02 5.014719283320528823e-05 6.429689980683140314e-05 2.094400114991703740e-02 -3.584961916630574592e-05 -2.470416707015603186e-05 2.086399890981915570e-02 5.156684694155742959e-06 -3.470639673027160288e-05 2.070900072129577482e-02 1.500580047327398404e-04 1.043278850528241527e-04 2.313500465285485766e-02 -7.692920016587708647e-05 1.132358261899224546e-05 2.281899672804741167e-02 -8.288894413900766681e-05 7.173097638953171862e-04 2.184398647512765523e-02 -6.208702796186116139e-04 3.713035925072859299e-04 2.137896947324817443e-02 -4.693414472596111605e-05 -1.666747678730951432e-04 2.293700047320514773e-02 6.721373622397576724e-04 2.512998863242346215e-04 2.118902382681691135e-02 9.114092222367315820e-05 -6.627011473313701093e-04 2.108401312657582835e-02 -7.098779831604757002e-04 -3.136938424450163958e-04 2.155497556069679507e-02 5.841173790755337580e-04 -3.066932393740764138e-04 2.166902815412782152e-02 -2.020996932384641880e-03 4.195653489563464129e-03 -2.455214180463296744e-02 -4.621400877739385523e-04 2.377900492697417544e-04 1.262319779272738085e-01 2.443878544384698367e-03 4.409693405873456491e-03 -2.148996302292054128e-02 2.792720461056261922e-05 -5.833230054382925692e-04 -2.278099061372373599e-02 -4.654127226849823738e-03 -9.883004971194243003e-04 -2.145217552798989527e-02 4.649876265324772405e-03 -4.713088596802261299e-04 -2.152780399102417058e-02 2.216874218123163817e-03 -3.450307053594828775e-03 -2.153486082929106232e-02 -2.620114613452590585e-03 -3.753307235994578477e-03 -2.181505349992529652e-02 4.219305485437645502e-04 3.586757785873542878e-04 -2.284498792510208931e-02 -2.179958199608318604e-04 5.665056121455025662e-05 -2.465900970307594725e-02 -8.916844965391494335e-05 -1.260289794429524492e-03 -2.044498578188899338e-02 3.078232014360560240e-04 -1.313287213003401163e-03 -2.024096886447927096e-02 1.237845662987703153e-03 4.857047287086109738e-04 -2.075795649940360976e-02 -1.311173401554237890e-03 6.817134164654647856e-04 -2.028606307613351617e-02 6.293855269990465532e-05 7.567319579684052473e-05 -2.304699853139280039e-02 1.005829520563806655e-03 6.197105672905604346e-04 -2.035896784683228350e-02 1.338751807275789134e-04 -1.453048558352034770e-04 -2.149499250836938227e-02 -1.125150224448416125e-03 7.947052320068172292e-04 -2.085305710361539874e-02 -1.051574004226631765e-04 -9.929331228967361246e-05 -2.069400289357452641e-02 8.884916957599780477e-05 -8.129574681779595921e-05 -2.085499524877948430e-02 1.684068006169243330e-05 -2.102927698032232263e-04 -2.064899635194077793e-02 5.786253473148525613e-05 8.569966965475632318e-05 -2.117999887851025262e-02 -2.516083340188271175e-05 2.487079152149295337e-04 -2.060300456985271478e-02 -6.915684436515890071e-05 9.070651772535696543e-05 -2.070400412138964988e-02 -3.416035818999383792e-05 -2.829231873270141858e-05 -2.062000100908409350e-02 1.908371725400467194e-04 -9.291630063234768315e-06 -2.055899211632680398e-02 -1.591410352516692999e-04 -1.298941135906005496e-06 -2.109400648154946892e-02
6.258887670367009820e-04 -7.692211239635831591e-04 1.255040365092443821e-01 4.439850140037311025e-04 8.830051107119049961e-04 3.850055607348588319e-04 -1.059142648092129988e-03 9.905052235569687311e-05 3.504955469761841542e-03 -9.811307146749233873e-04 -5.395373533000663889e-05 3.208960815461200586e-03 1.959857320286785554e-03 -1.979519123687336799e-04 3.500082616811760802e-03 -9.880962116304145212e-04 -1.419657667884255338e-04 2.359961778847657204e-03 -9.041426067162733901e-04 1.000503868133965457e-04 3.503961767316931229e-03 3.609044956761008039e-04 9.180332193762860823e-04 2.363001682843749417e-03 5.368589468665525876e-04 -8.259515353472531886e-04 3.448033574724418317e-03 2.388074115189552028e-05 -3.595850620345502469e-05 2.928001484978047693e-03 1.986974652841004855e-05 -3.595467506672233172e-05 3.198001321843651351e-03 -5.313240067051685085e-05 -7.395388065881320933e-05 3.249998887928192380e-03 1.786622578202681438e-05 4.404657413719703163e-05 3.286000106099066891e-03 2.486760793406093885e-05 4.104608661148402316e-05 3.252000433709921826e-03 -5.013653771866166653e-05 -9.524227022385146930e-07 3.352997975018264399e-03 2.486744191640694526e-05 3.704614332306872213e-05 3.256000490417257365e-03 1.786817646447992595e-05 3.904589360352365247e-05 3.238000177032505401e-03 -4.913116648647699008e-05 -5.954294953718558070e-06 3.220998086750639748e-03 -2.714118468073139747e-05 -1.773951306308782332e-03 3.433024048698099170e-03 1.026051150322555277e-06 -1.300907457071806664e-05 -6.399997743732809214e-04 1.884573448859069918e-05 -1.785946791253084165e-03 3.754026091692011340e-03 5.895518938862739068e-06 1.103637552381616045e-05 2.566000085984359094e-03 1.508847729089399974e-03 9.170520843435360763e-04 3.757048443262734488e-03 -1.523151500968486461e-03 9.090541890105755972e-04 3.737925091081918932e-03 -1.539152060101928654e-03 8.710543858536846278e-04 3.750924978291228073e-03 1.543843780681055863e-03 8.670534180120662666e-04 3.853050577291455316e-03 -1.604258850036710042e-05 7.014842501182743189e-06 1.045999248249677906e-03 -1.621189426964726732e-02 -8.856374698471041612e-03 -2.732453462348554199e-02 1.577708707617512737e-02 -9.295393379860699204e-03 -2.687422578055840075e-02 4.451054054628331776e-04 -1.300370830879699915e-04 -2.590980033703412996e-03 -1.409897138622362737e-03 3.109653759489122075e-04 -2.520061823341924676e-03 -4.290008844623250132e-05 1.818962203841589451e-02 -2.666125966045089501e-02 1.466076160450389704e-03 7.969725522368898557e-04 -1.854951601185341392e-03 1.590829130175369058e-04 -1.552029415665149778e-03 -2.065971519575221169e-03 1.750871151772952043e-04 2.769696075324428212e-04 -2.133996799107772124e-03 -3.279216675947645241e-04 2.409730496091415678e-04 -1.919016771496262442e-03 -3.953560481340920307e-03 2.617850783647289546e-03 -1.074319811764339744e-02 -2.888727876812385614e-04 3.639560340610465414e-04 -3.117016926134316603e-03 4.248426810013606128e-03 2.465848742466908786e-03 -1.043386197048973806e-02 -3.135704331701472071e-04 -4.726150605405436862e-03 -1.063994577234617794e-02 -1.151739603851625968e-03 -1.006090034266471670e-03 -6.414032641627994726e-03 1.472256359724386258e-03 -4.900905435207090089e-04 -6.304933105941939661e-03 -1.738777890039072010e-04 -4.580425388765405341e-04 -3.010000589214335397e-03 1.601145882611254047e-04 -1.040400499406433769e-04 -2.815992007558671805e-03 2.024968358525937030e-05 1.329913414587509781e-03 -6.106018036332261367e-03 -1.587182642886217701e-05 3.195539500270447661e-05 -3.147001102296602577e-03 -2.387099476681003252e-05 5.395511770854859759e-05 -3.167001739955615895e-03 4.913782117205293026e-05 -7.604804437424982685e-05 -3.385996924020651718e-03 -4.386556012269946430e-05 -2.604678062583739258e-05 -3.302001420026064865e-03 3.912903882463507343e-05 -7.044959969650445330e-06 -3.168998309696564961e-03 1.213531301566589408e-05 4.895289196290975026e-05 -3.322000202972070441e-03 -3.886482247526665067e-05 -7.204705391429275870e-05 -3.321000564227027680e-03 1.261389605580985878e-04 2.695152670198313800e-05 -3.411995248800583132e-03 -7.886105337619715521e-05 8.951687218009708052e-06 -3.412003341375319763e-03 -1.171430870175259157e-04 -1.472830227596341399e-02 -2.132679597513454164e-02 2.938028685441635389e-03 -1.533012706789958855e-03 -7.338586269456989081e-04 -2.833975725569034838e-03 -1.400006613614269285e-03 -6.230955534440705710e-04 -1.301413033891151393e-02 7.295709393853023160e-03 -2.121663340311717716e-02 1.284987528266997095e-02 7.429687214246767819e-03 -2.135158209871777790e-02 1.709993797426158455e-04 1.960001354660102020e-04 1.900418440623900354e-05 -2.719960405999281394e-04 -3.000012473077245273e-04 -1.030068226467149183e-04 2.103332371572939999e-05 3.239989264817156895e-03 -7.560450801129839577e-04 2.610046614486997507e-04 -1.830018773234010391e-04 -1.179867772174514405e-04 -1.569016281274867013e-03 5.790070555364930285e-04 4.109278996774855643e-04 1.735977887543736515e-03 8.320065660224060721e-04 5.590588949786882457e-04 -1.747074346329233131e-04 1.800898765605918935e-03 -7.150032653654321384e-03 -1.921704509559726652e-03 -7.561015817552608435e-04 -7.271067540327554382e-03 2.929848856570525643e-04 -8.399951962158381299e-04 3.550238402006821868e-04 1.622289560005633511e-03 -1.305102442635917761e-03 -7.135915442164550253e-03 3.179754153030839325e-04 -1.648992139127591775e-03 5.720363278308822829e-04 -8.780195480845289988e-04 6.720076770559936996e-04 4.929547191773775731e-04 5.589807741396226768e-04 6.690064384684570563e-04 4.850132775811594600e-04 6.899536168487753593e-05 5.001562241432590986e-06 1.140027387439355013e-04 -5.500141188801543196e-05 -3.499947488664066674e-05 3.399825654330359084e-05 -1.500339862304363488e-05 -2.399881149562303802e-05 8.299972937639979518e-05 5.799453474002491161e-05 -1.099814558808944624e-05 1.340025176401967203e-04 -2.700285046138831127e-05 -5.199900058598152781e-05 6.899963771657784931e-05 -3.500355287050731354e-05 -1.299873912562739148e-05 8.699875900026092588e-05 1.799660061597530846e-05 7.900119101071094896e-05 8.499961285299033797e-05 -3.300160764974610411e-05 2.700059294796576433e-05 3.999827337511560735e-05 1.399739933964207835e-05 7.000896416251382317e-06 6.400047078807705821e-05 3.266430929572776420e-02 -1.573713756460554114e-02 -7.897446771312545757e-03 -2.709675568226717780e-03 1.648237784284976469e-03 1.662186630680834859e-02 -2.996996058361079199e-02 -1.713099492047879396e-02 -1.297977523436319534e-03 -1.055859247070854798e-03 3.520896142320115163e-02 -2.779542183509341700e-03 -2.826815617106725629e-04 -3.295763378302923007e-03 1.667403523112825220e-02 1.337112050639280205e-03 4.293082267359485285e-04 2.181404838196000784e-02 -6.988653708450486913e-05 -1.251691621331285338e-03 2.174701492060515662e-02 -7.794603594412521474e-05 -1.156705895113142575e-04 2.322999848752045626e-02 1.490511558716563819e-04 2.503303102241089310e-04 2.330600254202157967e-02 1.421609696466296529e-04 -7.470800684302101300e-05 2.060300686726145372e-02 1.515030956115147647e-05 4.029583552387336793e-05 2.086700006502514859e-02 -1.458322023091491516e-04 -3.971014903548216802e-05 2.043599464358985401e-02 5.116626666552575898e-05 1.372902779860413669e-04 2.047700015609527427e-02 2.515676536065559416e-05 1.629357342686852398e-05 2.070800081264779005e-02 -6.383789467545320775e-05 -2.870822835092502561e-05 2.057599782661410567e-02 -1.184599030502809486e-05 3.329456648609720410e-05 2.077599906489110623e-02 -1.284405218390269599e-05 -3.970612743552020754e-05 2.072700005919253866e-02 3.116278417928468981e-05 -4.570854375636722040e-05 2.055900193613274113e-02 1.050715201710791542e-04 9.932321326009463977e-05 2.280300289161400415e-02 -1.089178812879787516e-04 6.131968042051305103e-05 2.254199471634949978e-02 1.233628887174014980e-07 7.293054172112268000e-04 2.154198968510587231e-02 -5.978577783647856352e-04 3.192992077426446405e-04 2.107097114735776919e-02 -5.992250247280309121e-05 -1.716788125431149370e-04 2.265100001498876817e-02 6.631483858662443531e-04 2.882960653627219681e-04 2.091902293600299279e-02 2.115137343329133373e-05 -6.807047362132330297e-04 2.082701053155489729e-02 -6.428675469523815892e-04 -3.506975385954372044e-04 2.129797881380997293e-02 6.081290377530471124e-04 -2.906973130170711103e-04 2.138302890484989477e-02 -1.943004793163585287e-03 4.141656150631917166e-03 -2.436013786298583603e-02 -5.391193670710968389e-04 2.297828930634123823e-04 1.257229749056635315e-01 2.445872190339869710e-03 4.355695601871188878e-03 -2.133496217602370154e-02 6.892163287363704100e-05 -5.743210951840775581e-04 -2.264398907189606874e-02 -4.616132809554289278e-03 -9.932985845148092647e-04 -2.131517390983609164e-02 4.556870888708858432e-03 -4.213069012198409225e-04 -2.139480848707513497e-02 2.169866416240888007e-03 -3.377304280486863580e-03 -2.134186377832721082e-02 -2.615122047348269942e-03 -3.730304645375326356e-03 -2.163205362257971526e-02 4.569221561038257890e-04 3.536786718088376293e-04 -2.263898642917498011e-02 -2.060043110619911352e-04 2.965350080275383908e-05 -2.445100883181947418e-02 -1.101750949691542665e-04 -1.270287467004953090e-03 -2.028198649540075699e-02 3.188167268383521242e-04 -1.261284953174343160e-03 -2.008096915394234905e-02 1.178836821154322220e-03 5.307078656602369059e-04 -2.053995954013583536e-02 -1.292181531633676203e-03 6.997162371457959140e-04 -2.008606255782300828e-02 1.129283489911898155e-04 1.496767294440041769e-04 -2.279499754473899784e-02 9.748185987601054245e-04 5.567143770411543029e-04 -2.009196821622777004e-02 8.386692146570666202e-05 -1.883019527663974191e-04 -2.129299393495588666e-02 -1.058158770420354914e-03 7.497081427098421791e-04 -2.064405373751330292e-02 -8.016436997562802864e-05 -1.072909074607639060e-04 -2.052300176229010162e-02 2.984140996668044042e-05 -5.829299266442704053e-05 -2.066399797757581189e-02 4.683305742897474677e-05 -1.682901278718136725e-04 -2.046099572595607222e-02 4.085628016628522130e-05 5.470185217150670351e-05 -2.102699913139628035e-02 -1.166835081721044931e-06 1.767099663884032657e-04 -2.045700257188904150e-02 -5.916521797859901111e-05 1.097094305193248098e-04 -2.049800398375013766e-02 -7.216665500078214173e-05 -9.290091422481614264e-06 -2.046500282599802989e-02 1.458309015680079711e-04 -9.289411447921815018e-06 -2.040499394890826074e-02 -7.514860077827266330e-05 9.703630161245530472e-06 -2.090800321712627668e-02