9.307335580000000164e+00 0.000000000000000000e+00 0.000000000000000000e+00 0.000000000000000000e+00 1.612147778066558246e+01 -3.841536615255885295e-18 0.000000000000000000e+00 2.016148494950605607e-01 2.165026609635730281e+01
9.307335580000000164e+00 0.000000000000000000e+00 0.000000000000000000e+00 0.000000000000000000e+00 1.612147778066558246e+01 -3.841536615255885295e-18 0.000000000000000000e+00 2.016148494950605607e-01 2.165026609635730281e+01
9.307335580000000164e+00 0.000000000000000000e+00 0.000000000000000000e+00 0.000000000000000000e+00 1.612147778066558246e+01 -3.841536615255885295e-18 0.000000000000000000e+00 2.016148494950605607e-01 2.165026609635730281e+01
9.307335580000000164e+00 0.000000000000000000e+00 0.000000000000000000e+00 0.000000000000000000e+00 1.612147778066558246e+01 -3.841536615255885295e-18 0.000000000000000000e+00 2.016148494950605607e-01 2.165026609635730281e+01
9.307335580000000164e+00 0.000000000000000000e+00 0.000000000000000000e+00 0.000000000000000000e+00 1.612147778066558246e+01 -3.841536615255885295e-18 0.000000000000000000e+00 2.016148494950605607e-01 2.165026609635730281e+01
