1.299999999999999886e-04 1.615716785275141731e+01 4.874096652715882882e+00 1.551360000000000072e+00 2.722605386842960051e+00 4.874098572570490617e+00 1.299999999999999886e-04 3.613698524590230665e+00 2.314429781582148404e+00 1.551350000000000007e+00 9.267920311483965889e-01 2.314430109681394399e+00 3.102580000000000116e+00 1.615716785275141731e+01 4.874096652715882882e+00 4.653800000000000381e+00 2.722605386842960051e+00 4.874098572570490617e+00 3.102580000000000116e+00 3.613698524590230665e+00 2.314429781582148404e+00 4.653800000000000381e+00 9.267920311483965889e-01 2.314430109681394399e+00 6.205020000000000202e+00 1.615716785275141731e+01 4.874096652715882882e+00 7.756249999999999645e+00 2.722605386842960051e+00 4.874098572570490617e+00 6.205020000000000202e+00 3.613698524590230665e+00 2.314429781582148404e+00 7.756249999999999645e+00 9.267920311483965889e-01 2.314430109681394399e+00 1.299999999999999886e-04 5.409511880284792795e+00 4.874098244471245955e+00 1.551360000000000072e+00 8.096428373293056424e+00 4.874097823252539818e+00 1.299999999999999886e-04 8.987521511040325706e+00 2.314429032264197161e+00 1.551350000000000007e+00 6.300615017598493850e+00 2.314429360363443156e+00 3.102580000000000116e+00 5.409511880284792795e+00 4.874098244471245955e+00 4.653800000000000381e+00 8.096428373293056424e+00 4.874097823252539818e+00 3.102580000000000116e+00 8.987521511040325706e+00 2.314429032264197161e+00 4.653800000000000381e+00 6.300615017598493850e+00 2.314429360363443156e+00 6.205020000000000202e+00 5.409511880284792795e+00 4.874098244471245955e+00 7.756249999999999645e+00 8.096428373293056424e+00 4.874097823252539818e+00 6.205020000000000202e+00 8.987521511040325706e+00 2.314429032264197161e+00 7.756249999999999645e+00 6.300615017598493850e+00 2.314429360363443156e+00 1.299999999999999886e-04 1.078334486630132005e+01 4.874097402033834570e+00 1.551360000000000072e+00 1.347025135974315369e+01 4.874097073934589019e+00 1.299999999999999886e-04 1.436135449705685296e+01 2.314428189826786220e+00 1.551350000000000007e+00 1.167443800404859111e+01 2.314428611045491468e+00 3.102580000000000116e+00 1.078334486630132005e+01 4.874097402033834570e+00 4.653800000000000381e+00 1.347025135974315369e+01 4.874097073934589019e+00 3.102580000000000116e+00 1.436135449705685296e+01 2.314428189826786220e+00 4.653800000000000381e+00 1.167443800404859111e+01 2.314428611045491468e+00 6.205020000000000202e+00 1.078334486630132005e+01 4.874097402033834570e+00 7.756249999999999645e+00 1.347025135974315369e+01 4.874097073934589019e+00 6.205020000000000202e+00 1.436135449705685296e+01 2.314428189826786220e+00 7.756249999999999645e+00 1.167443800404859111e+01 2.314428611045491468e+00 1.299999999999999886e-04 1.622437281863069103e+01 1.209085374142693148e+01 1.551360000000000072e+00 2.789810352722233766e+00 1.209085566128153921e+01 1.299999999999999886e-04 3.680903490469504380e+00 9.531186870293195668e+00 1.551350000000000007e+00 9.939969970276704148e-01 9.531187198392442994e+00 3.102580000000000116e+00 1.622437281863069103e+01 1.209085374142693148e+01 4.653800000000000381e+00 2.789810352722233766e+00 1.209085566128153921e+01 3.102580000000000116e+00 3.680903490469504380e+00 9.531186870293195668e+00 4.653800000000000381e+00 9.939969970276704148e-01 9.531187198392442994e+00 6.205020000000000202e+00 1.622437281863069103e+01 1.209085374142693148e+01 7.756249999999999645e+00 2.789810352722233766e+00 1.209085566128153921e+01 6.205020000000000202e+00 3.680903490469504380e+00 9.531186870293195668e+00 7.756249999999999645e+00 9.939969970276704148e-01 9.531187198392442994e+00 1.299999999999999886e-04 5.476716846164067398e+00 1.209085533318229366e+01 1.551360000000000072e+00 8.163633339172330139e+00 1.209085491196358753e+01 1.299999999999999886e-04 9.054726476919599421e+00 9.531186120975245757e+00 1.551350000000000007e+00 6.367819983477767565e+00 9.531186449074491307e+00 3.102580000000000116e+00 5.476716846164067398e+00 1.209085533318229366e+01 4.653800000000000381e+00 8.163633339172330139e+00 1.209085491196358753e+01 3.102580000000000116e+00 9.054726476919599421e+00 9.531186120975245757e+00 4.653800000000000381e+00 6.367819983477767565e+00 9.531186449074491307e+00 6.205020000000000202e+00 5.476716846164067398e+00 1.209085533318229366e+01 7.756249999999999645e+00 8.163633339172330139e+00 1.209085491196358753e+01 6.205020000000000202e+00 9.054726476919599421e+00 9.531186120975245757e+00 7.756249999999999645e+00 6.367819983477767565e+00 9.531186449074491307e+00 1.299999999999999886e-04 1.085054983218059377e+01 1.209085449074488139e+01 1.551360000000000072e+00 1.353745632562242740e+01 1.209085416264563762e+01 1.299999999999999886e-04 1.442855946293612668e+01 9.531185278537833483e+00 1.551350000000000007e+00 1.174164296992786483e+01 9.531185699756539620e+00 3.102580000000000116e+00 1.085054983218059377e+01 1.209085449074488139e+01 4.653800000000000381e+00 1.353745632562242740e+01 1.209085416264563762e+01 3.102580000000000116e+00 1.442855946293612668e+01 9.531185278537833483e+00 4.653800000000000381e+00 1.174164296992786483e+01 9.531185699756539620e+00 6.205020000000000202e+00 1.085054983218059377e+01 1.209085449074488139e+01 7.756249999999999645e+00 1.353745632562242740e+01 1.209085416264563762e+01 6.205020000000000202e+00 1.442855946293612668e+01 9.531185278537833483e+00 7.756249999999999645e+00 1.174164296992786483e+01 9.531185699756539620e+00 1.299999999999999886e-04 1.629157778450996474e+01 1.930761083013798185e+01 1.551360000000000072e+00 2.857015318601507481e+00 1.930761274999258603e+01 1.299999999999999886e-04 3.748108456348778095e+00 1.674794395900424249e+01 1.551350000000000007e+00 1.061201962906944019e+00 1.674794428710349337e+01 3.102580000000000116e+00 1.629157778450996474e+01 1.930761083013798185e+01 4.653800000000000381e+00 2.857015318601507481e+00 1.930761274999258603e+01 3.102580000000000116e+00 3.748108456348778095e+00 1.674794395900424249e+01 4.653800000000000381e+00 1.061201962906944019e+00 1.674794428710349337e+01 6.205020000000000202e+00 1.629157778450996474e+01 1.930761083013798185e+01 7.756249999999999645e+00 2.857015318601507481e+00 1.930761274999258603e+01 6.205020000000000202e+00 3.748108456348778095e+00 1.674794395900424249e+01 7.756249999999999645e+00 1.061201962906944019e+00 1.674794428710349337e+01 1.299999999999999886e-04 5.543921812043341113e+00 1.930761242189334226e+01 1.551360000000000072e+00 8.230838305051603854e+00 1.930761200067463790e+01 1.299999999999999886e-04 9.121931442798873135e+00 1.674794320968629080e+01 1.551350000000000007e+00 6.435024949357041280e+00 1.674794353778554168e+01 3.102580000000000116e+00 5.543921812043341113e+00 1.930761242189334226e+01 4.653800000000000381e+00 8.230838305051603854e+00 1.930761200067463790e+01 3.102580000000000116e+00 9.121931442798873135e+00 1.674794320968629080e+01 4.653800000000000381e+00 6.435024949357041280e+00 1.674794353778554168e+01 6.205020000000000202e+00 5.543921812043341113e+00 1.930761242189334226e+01 7.756249999999999645e+00 8.230838305051603854e+00 1.930761200067463790e+01 6.205020000000000202e+00 9.121931442798873135e+00 1.674794320968629080e+01 7.756249999999999645e+00 6.435024949357041280e+00 1.674794353778554168e+01 1.299999999999999886e-04 1.091775479805986748e+01 1.930761157945592998e+01 1.551360000000000072e+00 1.360466129150170111e+01 1.930761125135668621e+01 1.299999999999999886e-04 1.449576442881540039e+01 1.674794236724888563e+01 1.551350000000000007e+00 1.180884793580713854e+01 1.674794278846758999e+01 3.102580000000000116e+00 1.091775479805986748e+01 1.930761157945592998e+01 4.653800000000000381e+00 1.360466129150170111e+01 1.930761125135668621e+01 3.102580000000000116e+00 1.449576442881540039e+01 1.674794236724888563e+01 4.653800000000000381e+00 1.180884793580713854e+01 1.674794278846758999e+01 6.205020000000000202e+00 1.091775479805986748e+01 1.930761157945592998e+01 7.756249999999999645e+00 1.360466129150170111e+01 1.930761125135668621e+01 6.205020000000000202e+00 1.449576442881540039e+01 1.674794236724888563e+01 7.756249999999999645e+00 1.180884793580713854e+01 1.674794278846758999e+01 1.200000000000000030e-04 1.824728893933884155e+00 3.594284060900421629e+00 1.299999999999999886e-04 3.619797053271317733e+00 5.924659521536092655e+00 1.551339999999999941e+00 2.716506485684033745e+00 1.263828834350830599e+00 1.200000000000000030e-04 2.959999224219994271e-02 1.263829162450076371e+00 1.551350000000000007e+00 4.511645386942147340e+00 3.594283639681715936e+00 1.551350000000000007e+00 9.328805602630549920e-01 5.924659942754797903e+00 3.102570000000000050e+00 1.824728893933884155e+00 3.594284060900421629e+00 3.102570000000000050e+00 3.619797053271317733e+00 5.924659521536092655e+00 4.653789999999999871e+00 2.716506485684033745e+00 1.263828834350830599e+00 3.102570000000000050e+00 2.959999224219994271e-02 1.263829162450076371e+00 4.653789999999999871e+00 4.511645386942147340e+00 3.594283639681715936e+00 4.653800000000000381e+00 9.328805602630549920e-01 5.924659942754797903e+00 6.205009999999999692e+00 1.824728893933884155e+00 3.594284060900421629e+00 6.205020000000000202e+00 3.619797053271317733e+00 5.924659521536092655e+00 7.756230000000000402e+00 2.716506485684033745e+00 1.263828834350830599e+00 6.205009999999999692e+00 2.959999224219994271e-02 1.263829162450076371e+00 7.756240000000000023e+00 4.511645386942147340e+00 3.594283639681715936e+00 7.756240000000000023e+00 9.328805602630549920e-01 5.924659942754797903e+00 1.200000000000000030e-04 7.198551880383980972e+00 3.594283311582470386e+00 1.299999999999999886e-04 8.993620039721415438e+00 5.924658772218141856e+00 1.551339999999999941e+00 8.090339471700559670e+00 1.263827991913419879e+00 1.200000000000000030e-04 5.403422978692296930e+00 1.263828413132125350e+00 1.551350000000000007e+00 9.885468373392246377e+00 3.594282890363764693e+00 1.551350000000000007e+00 6.306703546713152697e+00 5.924659193436847104e+00 3.102570000000000050e+00 7.198551880383980972e+00 3.594283311582470386e+00 3.102570000000000050e+00 8.993620039721415438e+00 5.924658772218141856e+00 4.653789999999999871e+00 8.090339471700559670e+00 1.263827991913419879e+00 3.102570000000000050e+00 5.403422978692296930e+00 1.263828413132125350e+00 4.653789999999999871e+00 9.885468373392246377e+00 3.594282890363764693e+00 4.653800000000000381e+00 6.306703546713152697e+00 5.924659193436847104e+00 6.205009999999999692e+00 7.198551880383980972e+00 3.594283311582470386e+00 6.205020000000000202e+00 8.993620039721415438e+00 5.924658772218141856e+00 7.756230000000000402e+00 8.090339471700559670e+00 1.263827991913419879e+00 6.205009999999999692e+00 5.403422978692296930e+00 1.263828413132125350e+00 7.756240000000000023e+00 9.885468373392246377e+00 3.594282890363764693e+00 7.756240000000000023e+00 6.306703546713152697e+00 5.924659193436847104e+00 1.200000000000000030e-04 1.257238486640050823e+01 3.594282469145059000e+00 1.299999999999999886e-04 1.436744302617151270e+01 5.924658022900190169e+00 1.551339999999999941e+00 1.346416245815065693e+01 1.263827242595468858e+00 1.200000000000000030e-04 1.077724596514239330e+01 1.263827663814174329e+00 1.551350000000000007e+00 1.525930135940877186e+01 3.594282047926353751e+00 1.551350000000000007e+00 1.168053653272967729e+01 5.924658350999436607e+00 3.102570000000000050e+00 1.257238486640050823e+01 3.594282469145059000e+00 3.102570000000000050e+00 1.436744302617151270e+01 5.924658022900190169e+00 4.653789999999999871e+00 1.346416245815065693e+01 1.263827242595468858e+00 3.102570000000000050e+00 1.077724596514239330e+01 1.263827663814174329e+00 4.653789999999999871e+00 1.525930135940877186e+01 3.594282047926353751e+00 4.653800000000000381e+00 1.168053653272967729e+01 5.924658350999436607e+00 6.205009999999999692e+00 1.257238486640050823e+01 3.594282469145059000e+00 6.205020000000000202e+00 1.436744302617151270e+01 5.924658022900190169e+00 7.756230000000000402e+00 1.346416245815065693e+01 1.263827242595468858e+00 6.205009999999999692e+00 1.077724596514239330e+01 1.263827663814174329e+00 7.756240000000000023e+00 1.525930135940877186e+01 3.594282047926353751e+00 7.756240000000000023e+00 1.168053653272967729e+01 5.924658350999436607e+00 1.200000000000000030e-04 1.891933859813157870e+00 1.081104114961146934e+01 1.299999999999999886e-04 3.687002019150591448e+00 1.314141661024714125e+01 1.551339999999999941e+00 2.783711451563307460e+00 8.480585923061878972e+00 1.200000000000000030e-04 9.680495812147368873e-02 8.480586251161126299e+00 1.551350000000000007e+00 4.578850352821421055e+00 1.081104072839276498e+01 1.551350000000000007e+00 1.000085526142328707e+00 1.314141703146584561e+01 3.102570000000000050e+00 1.891933859813157870e+00 1.081104114961146934e+01 3.102570000000000050e+00 3.687002019150591448e+00 1.314141661024714125e+01 4.653789999999999871e+00 2.783711451563307460e+00 8.480585923061878972e+00 3.102570000000000050e+00 9.680495812147368873e-02 8.480586251161126299e+00 4.653789999999999871e+00 4.578850352821421055e+00 1.081104072839276498e+01 4.653800000000000381e+00 1.000085526142328707e+00 1.314141703146584561e+01 6.205009999999999692e+00 1.891933859813157870e+00 1.081104114961146934e+01 6.205020000000000202e+00 3.687002019150591448e+00 1.314141661024714125e+01 7.756230000000000402e+00 2.783711451563307460e+00 8.480585923061878972e+00 6.205009999999999692e+00 9.680495812147368873e-02 8.480586251161126299e+00 7.756240000000000023e+00 4.578850352821421055e+00 1.081104072839276498e+01 7.756240000000000023e+00 1.000085526142328707e+00 1.314141703146584561e+01 1.200000000000000030e-04 7.265756846263254687e+00 1.081104040029351943e+01 1.299999999999999886e-04 9.060825005600689153e+00 1.314141586092918956e+01 1.551339999999999941e+00 8.157544437579833385e+00 8.480585080624468475e+00 1.200000000000000030e-04 5.470627944571570644e+00 8.480585501843172835e+00 1.551350000000000007e+00 9.952673339271520092e+00 1.081103997907481329e+01 1.551350000000000007e+00 6.373908512592426412e+00 1.314141628214789570e+01 3.102570000000000050e+00 7.265756846263254687e+00 1.081104040029351943e+01 3.102570000000000050e+00 9.060825005600689153e+00 1.314141586092918956e+01 4.653789999999999871e+00 8.157544437579833385e+00 8.480585080624468475e+00 3.102570000000000050e+00 5.470627944571570644e+00 8.480585501843172835e+00 4.653789999999999871e+00 9.952673339271520092e+00 1.081103997907481329e+01 4.653800000000000381e+00 6.373908512592426412e+00 1.314141628214789570e+01 6.205009999999999692e+00 7.265756846263254687e+00 1.081104040029351943e+01 6.205020000000000202e+00 9.060825005600689153e+00 1.314141586092918956e+01 7.756230000000000402e+00 8.157544437579833385e+00 8.480585080624468475e+00 6.205009999999999692e+00 5.470627944571570644e+00 8.480585501843172835e+00 7.756240000000000023e+00 9.952673339271520092e+00 1.081103997907481329e+01 7.756240000000000023e+00 6.373908512592426412e+00 1.314141628214789570e+01 1.200000000000000030e-04 1.263958983227978194e+01 1.081103955785610715e+01 1.299999999999999886e-04 1.443464799205078641e+01 1.314141511161123788e+01 1.551339999999999941e+00 1.353136742402993065e+01 8.480584331306516788e+00 1.200000000000000030e-04 1.084445093102166702e+01 8.480584752525222925e+00 1.551350000000000007e+00 1.532650632528804557e+01 1.081103913663740279e+01 1.551350000000000007e+00 1.174774149860895101e+01 1.314141543971048520e+01 3.102570000000000050e+00 1.263958983227978194e+01 1.081103955785610715e+01 3.102570000000000050e+00 1.443464799205078641e+01 1.314141511161123788e+01 4.653789999999999871e+00 1.353136742402993065e+01 8.480584331306516788e+00 3.102570000000000050e+00 1.084445093102166702e+01 8.480584752525222925e+00 4.653789999999999871e+00 1.532650632528804557e+01 1.081103913663740279e+01 4.653800000000000381e+00 1.174774149860895101e+01 1.314141543971048520e+01 6.205009999999999692e+00 1.263958983227978194e+01 1.081103955785610715e+01 6.205020000000000202e+00 1.443464799205078641e+01 1.314141511161123788e+01 7.756230000000000402e+00 1.353136742402993065e+01 8.480584331306516788e+00 6.205009999999999692e+00 1.084445093102166702e+01 8.480584752525222925e+00 7.756240000000000023e+00 1.532650632528804557e+01 1.081103913663740279e+01 7.756240000000000023e+00 1.174774149860895101e+01 1.314141543971048520e+01 1.200000000000000030e-04 1.959138732572972108e+00 1.802778823875608794e+01 1.299999999999999886e-04 3.754206985029865162e+00 2.035817369895818985e+01 1.551339999999999941e+00 2.850916417442581174e+00 1.569734301177292757e+01 1.200000000000000030e-04 1.640099240007474035e-01 1.569734333987217312e+01 1.551350000000000007e+00 4.646055318700694770e+00 1.802779781710381357e+01 1.551350000000000007e+00 1.067290492021602422e+00 2.035817412017689421e+01 3.102570000000000050e+00 1.959138732572972108e+00 1.802778823875608794e+01 3.102570000000000050e+00 3.754206985029865162e+00 2.035817369895818985e+01 4.653789999999999871e+00 2.850916417442581174e+00 1.569734301177292757e+01 3.102570000000000050e+00 1.640099240007474035e-01 1.569734333987217312e+01 4.653789999999999871e+00 4.646055318700694770e+00 1.802779781710381357e+01 4.653800000000000381e+00 1.067290492021602422e+00 2.035817412017689421e+01 6.205009999999999692e+00 1.959138732572972108e+00 1.802778823875608794e+01 6.205020000000000202e+00 3.754206985029865162e+00 2.035817369895818985e+01 7.756230000000000402e+00 2.850916417442581174e+00 1.569734301177292757e+01 6.205009999999999692e+00 1.640099240007474035e-01 1.569734333987217312e+01 7.756240000000000023e+00 4.646055318700694770e+00 1.802779781710381357e+01 7.756240000000000023e+00 1.067290492021602422e+00 2.035817412017689421e+01 1.200000000000000030e-04 7.332961812142528402e+00 1.802779748900456980e+01 1.299999999999999886e-04 9.128029971479962867e+00 2.035817294964023816e+01 1.551339999999999941e+00 8.224749403459107100e+00 1.569734216933551707e+01 1.200000000000000030e-04 5.537832910450845247e+00 1.569734259055422143e+01 1.551350000000000007e+00 1.001987830515079381e+01 1.802779706778586188e+01 1.551350000000000007e+00 6.441113478471700127e+00 2.035817337085894252e+01 3.102570000000000050e+00 7.332961812142528402e+00 1.802779748900456980e+01 3.102570000000000050e+00 9.128029971479962867e+00 2.035817294964023816e+01 4.653789999999999871e+00 8.224749403459107100e+00 1.569734216933551707e+01 3.102570000000000050e+00 5.537832910450845247e+00 1.569734259055422143e+01 4.653789999999999871e+00 1.001987830515079381e+01 1.802779706778586188e+01 4.653800000000000381e+00 6.441113478471700127e+00 2.035817337085894252e+01 6.205009999999999692e+00 7.332961812142528402e+00 1.802779748900456980e+01 6.205020000000000202e+00 9.128029971479962867e+00 2.035817294964023816e+01 7.756230000000000402e+00 8.224749403459107100e+00 1.569734216933551707e+01 6.205009999999999692e+00 5.537832910450845247e+00 1.569734259055422143e+01 7.756240000000000023e+00 1.001987830515079381e+01 1.802779706778586188e+01 7.756240000000000023e+00 6.441113478471700127e+00 2.035817337085894252e+01 1.200000000000000030e-04 1.270679479815905566e+01 1.802779664656715752e+01 1.299999999999999886e-04 1.450185295793006013e+01 2.035817220032228647e+01 1.551339999999999941e+00 1.359857238990920436e+01 1.569734142001756538e+01 1.200000000000000030e-04 1.091165589690094073e+01 1.569734184123627152e+01 1.551350000000000007e+00 1.539371129116731929e+01 1.802779622534844961e+01 1.551350000000000007e+00 1.181494646448822472e+01 2.035817252842153380e+01 3.102570000000000050e+00 1.270679479815905566e+01 1.802779664656715752e+01 3.102570000000000050e+00 1.450185295793006013e+01 2.035817220032228647e+01 4.653789999999999871e+00 1.359857238990920436e+01 1.569734142001756538e+01 3.102570000000000050e+00 1.091165589690094073e+01 1.569734184123627152e+01 4.653789999999999871e+00 1.539371129116731929e+01 1.802779622534844961e+01 4.653800000000000381e+00 1.181494646448822472e+01 2.035817252842153380e+01 6.205009999999999692e+00 1.270679479815905566e+01 1.802779664656715752e+01 6.205020000000000202e+00 1.450185295793006013e+01 2.035817220032228647e+01 7.756230000000000402e+00 1.359857238990920436e+01 1.569734142001756538e+01 6.205009999999999692e+00 1.091165589690094073e+01 1.569734184123627152e+01 7.756240000000000023e+00 1.539371129116731929e+01 1.802779622534844961e+01 7.756240000000000023e+00 1.181494646448822472e+01 2.035817252842153380e+01