-2.825677985389999776e+03
-2.825640903850000086e+03
-2.825529981260000113e+03
-2.825345844630000101e+03
-2.825089753079999809e+03
