-2.900000000000000017e-05 2.881024079305119587e-03 -1.082841004435468400e-05 -5.810000000000000277e-04 3.205333103056051854e-03 6.651809516613226871e-04 -2.290000000000000098e-04 -2.834634280443943180e-03 -8.066390122799967349e-04 2.110000000000000059e-04 -3.341371611121995121e-03 -4.539050081107322450e-04 4.920000000000000328e-04 3.558029819229254192e-03 -2.281420730059246821e-04 -1.330000000000000073e-04 4.070401608987040017e-03 5.611209687364360340e-04 -1.620000000000000075e-04 -2.843947609525974713e-03 -8.852115154861950764e-05 -1.100000000000000039e-04 -2.668177303752988349e-03 -4.361729883170605395e-04 -8.559999999999999901e-04 3.447243073104032385e-03 -3.121140735953216233e-04 3.959999999999999762e-04 3.249642067984607162e-03 5.907651225188611990e-04 -1.169999999999999979e-04 -2.790353942910858524e-03 -2.501745953982568481e-05 -5.140000000000000254e-04 -3.321037248209362559e-03 -4.180928078859855483e-04 -1.190000000000000058e-04 3.594032568567537278e-03 2.015413011663660025e-04 -7.940000000000000009e-04 3.633203494419468254e-03 -2.098412927385080750e-04 -1.289999999999999914e-04 -2.639798883064490079e-03 -6.104448025591423244e-04 -1.175000000000000046e-03 -2.442920591093853885e-03 -3.022647607804362121e-04 4.500000000000000283e-05 3.631390551822787950e-03 3.471997409736782693e-04 -9.000000000000000567e-05 3.063882199286245469e-03 8.047278357855596116e-05 -5.039999999999999992e-04 -3.297574803221618289e-03 -5.833184526122116948e-04 -2.849999999999999886e-04 -3.455739186462465900e-03 -1.888902240759890135e-03 -2.190000000000000106e-04 3.601838825942461561e-03 3.954770182114643274e-04 4.949999999999999973e-04 3.759775372073710740e-03 -1.490172860710798155e-04 2.149999999999999947e-04 -3.283975823897717587e-03 -6.264469555000713296e-04 1.036000000000000029e-03 -2.491020941358269153e-03 -3.128173104458289934e-04 -1.450000000000000009e-04 4.141147108091211733e-03 5.334609912147233969e-04 -2.469999999999999865e-04 3.511336304575604205e-03 4.493221073676869444e-04 -2.429999999999999977e-04 -3.631831831919859685e-03 -1.683253559227971445e-03 -1.579999999999999916e-04 -2.938993628754910537e-03 1.436837283910809981e-05 4.260000000000000006e-04 3.248865598044920963e-03 6.147733938942175807e-04 -8.799999999999999771e-05 3.471596618249928653e-03 2.626840690937678243e-04 1.020999999999999989e-03 -2.603088425832723613e-03 -1.047647235271176422e-04 -1.789999999999999870e-04 -2.977553584809654666e-03 -7.973077508636014672e-04 -5.990000000000000316e-04 3.257219105134793232e-03 6.526972507563495382e-04 3.300000000000000253e-05 3.455314375160228532e-03 3.398390336778300391e-04 -1.211999999999999970e-03 -2.626180548078891393e-03 -1.145501151987914843e-04 -1.579999999999999916e-04 -2.969243750582753385e-03 -1.235109813994851716e-05 -8.799999999999999771e-05 3.088482856779049216e-03 2.522511513986099518e-04 -6.059999999999999849e-04 3.243858657981597664e-03 8.288292990947102642e-04 -1.710000000000000094e-04 -2.824774393204534419e-03 -8.217314813830342611e-04 2.130000000000000003e-04 -3.291962586670446438e-03 -7.323771760247740599e-04 5.060000000000000478e-04 3.770339388782169374e-03 1.889162242094570562e-05 -1.369999999999999961e-04 4.140167930437353185e-03 7.504795185600221475e-04 -1.740000000000000010e-04 -2.806446368656786722e-03 -3.486803483326777271e-05 -1.160000000000000007e-04 -2.673970757471729777e-03 -7.361320453465304775e-04 -8.120000000000000048e-04 3.650459913411258084e-03 -7.499613708366157261e-05 4.099999999999999912e-04 3.283773116183545237e-03 8.194572114700134817e-04 -1.589999999999999888e-04 -2.771568941453163553e-03 -4.819338929969503745e-05 -5.109999999999999525e-04 -3.355792196788081726e-03 -7.137819919108506859e-04 -7.399999999999999623e-05 3.454578731428843957e-03 2.608424588894225080e-04 -8.019999999999999785e-04 3.544875658214664913e-03 -3.520249533728352022e-04 -9.399999999999999448e-05 -2.652503915575569419e-03 -4.713204619537240871e-04 -1.177000000000000095e-03 -2.482196103448520031e-03 -1.168909920609151071e-04 3.000000000000000076e-05 3.467593213253929857e-03 3.697259896129644389e-04 -7.299999999999999903e-05 2.936211512007909363e-03 -9.834610695003809635e-05 -5.490000000000000088e-04 -3.317838248990949857e-03 -5.041263269584993689e-04 -2.579999999999999828e-04 -3.483652009852619431e-03 -1.664632594373246675e-03 -2.410000000000000033e-04 3.491299923933912242e-03 4.455085197154598541e-04 4.789999999999999879e-04 3.640797000364488258e-03 -3.609185533287866555e-04 2.280000000000000126e-04 -3.335716413265423039e-03 -4.909592755735092294e-04 1.018000000000000025e-03 -2.489028184921354605e-03 -9.882658886710463358e-05 -1.000000000000000048e-04 4.082268566361099520e-03 3.320005302708066409e-04 -2.480000000000000108e-04 3.473263456578002274e-03 4.416763081712989222e-04 -2.979999999999999793e-04 -3.656894508286574665e-03 -2.012034431927916395e-03 -1.510000000000000112e-04 -2.886532441123320844e-03 -1.511273183201578896e-04 3.530000000000000152e-04 3.215405009955599885e-03 4.580781832312342226e-04 -1.090000000000000067e-04 3.499474348953313975e-03 2.494238982491088020e-04 1.051999999999999984e-03 -2.640681362834245479e-03 -4.904313815202603110e-04 -2.079999999999999872e-04 -2.876196953082030532e-03 -9.742592504470486223e-04 -5.789999999999999791e-04 3.199359143939505424e-03 4.532273911522482894e-04 6.799999999999999946e-05 3.535087419888321720e-03 3.150951185710890818e-04 -1.191000000000000001e-03 -2.617095707451832631e-03 -4.276482877753508944e-04 -1.520000000000000084e-04 -2.910428969147075152e-03 -1.399043085451488972e-04 -8.700000000000000051e-05 3.046624356967120306e-03 2.676416027725879139e-04 -5.910000000000000539e-04 3.283298206939233577e-03 7.684594226825604843e-04 -1.769999999999999926e-04 -2.912953238273866593e-03 -9.479158357311015309e-04 2.190000000000000106e-04 -3.223738469826203414e-03 -8.160161016564620312e-04 5.029999999999999749e-04 3.729629836748602628e-03 5.027206813521656716e-05 -1.190000000000000058e-04 4.168812819134457351e-03 7.122111196971154211e-04 -1.759999999999999954e-04 -2.904587532371164654e-03 -1.569594431501012495e-04 -1.259999999999999998e-04 -2.591775183464909652e-03 -8.229012081504287653e-04 -8.199999999999999824e-04 3.609675865809955538e-03 -5.161534451252060252e-05 3.959999999999999762e-04 3.287325969348699195e-03 7.714220448273666599e-04 -1.559999999999999972e-04 -2.858831637393307017e-03 -1.833866653797503843e-04 -5.029999999999999749e-04 -3.242765581879037892e-03 -8.188390446117648283e-04 -7.600000000000000418e-05 3.556872291274690116e-03 2.918912529733190650e-04 -8.239999999999999712e-04 3.584913326811281498e-03 -1.333883025263965299e-04 -9.699999999999999963e-05 -2.718495320484858296e-03 -3.627012441416889031e-04 -1.217999999999999899e-03 -2.603852005402008951e-03 -1.867611682441989507e-04 5.199999999999999680e-05 3.551952737149502177e-03 4.079420952245037431e-04 -5.599999999999999916e-05 2.981807680576994881e-03 1.802413827400402475e-04 -5.439999999999999957e-04 -3.351905536895453952e-03 -4.038047445605346037e-04 -2.559999999999999884e-04 -3.637595194703601310e-03 -1.765203444215218340e-03 -2.730000000000000222e-04 3.562013908775749256e-03 5.218533450004025605e-04 4.939999999999999730e-04 3.679132737946262579e-03 -1.102646660178946707e-04 2.229999999999999994e-04 -3.361802671918730397e-03 -3.927121020290621502e-04 1.039999999999999909e-03 -2.597693962463224013e-03 -1.698177769908492958e-04 -1.090000000000000067e-04 3.999112438592354254e-03 6.377881337057861614e-04 -2.410000000000000033e-04 3.470088814773056828e-03 6.377143699078155871e-04 -2.519999999999999996e-04 -3.480566909082908819e-03 -1.977674895274004682e-03 -1.320000000000000101e-04 -2.907669054716440892e-03 4.907818501532770436e-05 3.660000000000000059e-04 3.125988407842434855e-03 7.359228723410604633e-04 -1.110000000000000011e-04 3.457310710021577020e-03 4.468250825212253456e-04 1.023999999999999954e-03 -2.483933858919895078e-03 -4.108875570169052277e-04 -2.149999999999999947e-04 -2.928155295631407803e-03 -7.547659005716560003e-04 -5.860000000000000408e-04 3.115240307311737712e-03 7.630241331047595867e-04 4.800000000000000122e-05 3.474287770634360527e-03 5.516715388893348457e-04 -1.185999999999999988e-03 -2.466888036260909186e-03 -4.060460768838862152e-04 -1.559999999999999972e-04 -2.946769795194835017e-03 3.844182783623287974e-05 1.279999999999999942e-04 -6.201744029794036732e-04 -1.232303123794635210e-04 1.369999999999999961e-04 -5.473774693200410962e-04 -1.970988306936595404e-03 2.649999999999999903e-04 6.881141999050663285e-04 1.834671863818980279e-03 4.399999999999999886e-05 1.356027942353275591e-03 2.144465718904628015e-03 -1.520000000000000084e-04 -9.941094725937919731e-04 1.002614407401594779e-04 -6.799999999999999946e-05 -4.778990864249368139e-04 -1.275605136080210002e-03 5.670000000000000127e-04 -1.240898982752813037e-04 -2.238541872425672103e-04 3.800000000000000209e-05 -1.297455963070305888e-03 -1.438980550213693910e-03 6.299999999999999990e-05 9.748546440679432259e-04 2.235019110195517623e-03 6.700000000000000226e-05 1.946882686331760778e-03 1.803948947631730344e-03 1.060000000000000016e-04 -8.553726552945494941e-04 -3.603637848552211707e-05 -4.600000000000000004e-05 -8.944712808880388296e-04 -1.227723962324801668e-03 -2.939999999999999905e-04 -1.677398701372868233e-04 -2.934507385683773591e-04 6.399999999999999710e-05 -1.214612131270237415e-03 -1.348748075279876607e-03 -1.410000000000000120e-04 6.391256363493625714e-04 1.836128105814249312e-03 1.579999999999999916e-04 1.857607186735434025e-03 1.774779011536046624e-03 4.180000000000000230e-04 -9.535768475335960719e-04 4.988181881095515429e-05 1.769999999999999926e-04 -5.602307611968261603e-04 -1.310839995655009235e-03 7.299999999999999903e-05 -7.688434479886912393e-04 2.351696249196750599e-04 3.100000000000000135e-05 -1.778424373027688620e-03 -1.755515522409606269e-03 1.749999999999999982e-04 1.220748012104848823e-03 2.866756754756507111e-03 1.279999999999999942e-04 2.820021674174526781e-04 2.361476397843488995e-03 -3.750000000000000078e-04 -4.707747159905002624e-04 2.638497269401308333e-05 1.090000000000000067e-04 -1.148695221928684122e-03 -1.465366946235041774e-03 2.680000000000000090e-04 -7.635979757546620473e-04 1.541172651696836031e-04 6.000000000000000152e-05 -1.409496243476623945e-03 -1.764951370328736707e-03 2.719999999999999979e-04 6.562237924719100833e-04 3.350034527313678831e-03 -2.500000000000000120e-05 1.036008911300341821e-04 2.856159108900808985e-03 1.840000000000000001e-04 -9.073331529410262391e-04 -3.155233072367881562e-05 6.000000000000000152e-05 -1.576612213234129161e-03 -1.991405013823401102e-03 1.699999999999999987e-05 -6.908561417891417346e-04 2.334433364913662454e-04 1.699999999999999987e-05 -1.446425877217397560e-03 -1.864611804563051992e-03 -6.600000000000000506e-05 1.260401735819723264e-03 2.829385881130856012e-03 1.540000000000000028e-04 7.008658646201053896e-05 2.908473460494027853e-03 6.019999999999999961e-04 -5.164117107678875117e-04 -1.491976708323011411e-04 -1.479999999999999925e-04 -1.242883118801330934e-03 -1.592495385550198733e-03 1.279999999999999942e-04 -3.189954810282709581e-04 1.970554120547157280e-06 0.000000000000000000e+00 -7.063841976799130253e-04 -2.400526268397849567e-03 1.730000000000000038e-04 9.051821738470631909e-04 2.592683403763272089e-03 9.999999999999999547e-07 1.086632766659853793e-03 2.855005119158484598e-03 -3.300000000000000253e-05 -8.772971656582269633e-05 1.368228666242613520e-04 6.299999999999999990e-05 -1.542252676580217448e-03 -2.167732613027066515e-03 4.479999999999999933e-04 -4.333852184729151047e-04 6.803860969466998278e-05 -1.399999999999999979e-05 -4.608074358058814892e-04 -1.802787149695162655e-03 9.500000000000000523e-05 1.165769712195334701e-03 2.010231573259161839e-03 -6.700000000000000226e-05 7.618624558047754113e-04 2.559016529535344288e-03 1.369999999999999961e-04 -1.392489743274216056e-04 8.130020386666364680e-05 7.799999999999999859e-05 -6.560833815126421295e-04 -2.798011900707882398e-03 -1.379999999999999933e-04 -4.411893207507402927e-04 8.911219476312105976e-05 3.699999999999999811e-05 -4.699187889435053021e-04 -1.814702821896155369e-03 -7.999999999999999638e-06 8.880152958905081955e-04 2.574842487272666590e-03 3.089999999999999756e-04 7.193893675590320048e-04 2.508409842478500663e-03 2.429999999999999977e-04 -1.284543140668896694e-04 5.919872631742066117e-05 1.699999999999999987e-05 -1.427704636054136353e-03 -2.216801405672038944e-03 1.559999999999999972e-04 -3.608360887180302222e-04 -5.176623581821202533e-04 1.219999999999999974e-04 1.035212329617526045e-04 -2.307064011753050085e-03 2.669999999999999847e-04 9.723433055237462467e-04 2.717063395690861617e-03 1.859999999999999945e-04 1.876163739950349610e-03 3.552683298704729410e-03 -2.239999999999999966e-04 -3.048972350465917192e-04 1.198443826841433393e-04 -5.899999999999999754e-05 -8.851672637519741090e-04 -1.946841779699070435e-03 5.710000000000000015e-04 8.240901699429380644e-05 -6.007934369798276133e-04 -1.800000000000000046e-05 -7.538448703272817479e-04 -1.698053860005990399e-03 4.699999999999999724e-05 1.464335595966399263e-03 3.143500479145141125e-03 4.399999999999999886e-05 2.465348067176327020e-03 3.140178961089629735e-03 1.000000000000000048e-04 -1.790574226992993538e-04 -5.332858172165066924e-06 -6.099999999999999872e-05 -1.182679434089250721e-03 -1.893069031013483710e-03 -2.990000000000000036e-04 6.366126332046640997e-05 -5.736176806483934488e-04 8.000000000000000654e-05 -7.256003953067540922e-04 -1.779320394513220520e-03 -9.799999999999999684e-05 1.047749779363132136e-03 2.760363092030559008e-03 1.589999999999999888e-04 2.403838554931782973e-03 3.085749374434592317e-03 5.010000000000000347e-04 -3.242968249381015123e-04 7.702317401319115609e-05 1.420000000000000092e-04 -9.108273279879042098e-04 -2.017605902695175559e-03 1.359999999999999989e-04 -1.172398844680830224e-04 6.191185746607111512e-04 2.099999999999999884e-05 -1.222507197910632391e-03 -1.122664754526788485e-03 1.489999999999999897e-04 1.368159252851035984e-03 3.232399922478357973e-03 1.840000000000000001e-04 8.385690236550922627e-04 2.849314828615143874e-03 -2.860000000000000129e-04 -9.391856210327448025e-04 6.287729075312784152e-04 3.399999999999999973e-05 -7.144751368831684074e-05 -1.336392626733535344e-03 2.700000000000000035e-04 -1.436205469678976615e-04 5.783624628973096926e-04 1.399999999999999979e-05 -7.322734419283869790e-04 -1.207233451427831145e-03 9.299999999999999727e-05 7.432035516086130675e-04 3.562233776842326297e-03 -2.599999999999999840e-05 6.293646423033500336e-04 3.365285299498153252e-03 9.200000000000000007e-05 -1.292440362406390656e-03 6.030612818137454133e-04 1.099999999999999971e-05 -4.314161681040915778e-04 -2.083072991975648807e-03 1.900000000000000105e-05 -1.334813013494819535e-04 5.932686930810092364e-04 1.299999999999999920e-05 -7.458688428278541747e-04 -1.271109621275300604e-03 1.410000000000000120e-04 1.226010684903477066e-03 3.109718283141176768e-03 1.789999999999999870e-04 6.461962902050970726e-04 3.347127776844674180e-03 6.019999999999999961e-04 -9.087084340772623491e-04 5.724866652043956701e-04 3.999999999999999819e-06 -7.392233621841077986e-05 -1.387371791629054283e-03 9.500000000000000523e-05 -1.059984823957279719e-03 6.508987424939881826e-04 1.800000000000000046e-05 -1.699808164696588967e-03 -2.119263363348410090e-03 1.700000000000000122e-04 8.320156090036942304e-04 3.756415182906997635e-03 1.179999999999999951e-04 5.469720941038908654e-04 3.753069347650214542e-03 -1.399999999999999979e-05 -2.600259749355887402e-04 -1.578720620173148427e-06 1.200000000000000030e-04 -2.055182411114057309e-03 -1.083909247606739670e-03 4.530000000000000064e-04 -1.187146932631870421e-03 6.340821400597412621e-04 -1.219999999999999974e-04 -1.325911034423638132e-03 -1.487717691228291565e-03 1.849999999999999973e-04 1.063656697959487578e-03 3.287237811428604141e-03 -2.500000000000000120e-05 1.947466685383714266e-04 3.408334305066509223e-03 1.210000000000000002e-04 -3.258612318605392751e-04 -9.096954199253638469e-05 3.999999999999999819e-06 -1.397513232556763744e-03 -1.552053724852572565e-03 -1.749999999999999982e-04 -1.158580117926935344e-03 6.948187607890337009e-04 5.099999999999999960e-05 -1.346226773444337286e-03 -1.521529978167255725e-03 -6.299999999999999990e-05 9.135185205845303353e-04 3.702653901264476872e-03 1.920000000000000049e-04 3.067174551287229827e-04 3.297286824454214935e-03 2.700000000000000035e-04 -3.315257416630786567e-04 -5.491523117265056686e-05 -3.100000000000000135e-05 -2.049428360276283473e-03 -1.002959319262383773e-03 1.669999999999999935e-04 -9.681120634181491266e-04 -9.740272237798354047e-04 5.300000000000000078e-05 -1.059847380289264318e-03 -2.341232267523660725e-03 2.400000000000000061e-04 9.249313074911163753e-04 2.243484360636992508e-03 1.659999999999999963e-04 8.943416856264613073e-04 3.146808375060486211e-03 -1.600000000000000131e-04 -1.054030260714626391e-03 -1.072231416018881982e-03 -4.199999999999999768e-05 -9.089004869425221407e-04 -2.347638154579117717e-03 5.310000000000000050e-04 -5.415682383640355166e-04 -1.025001386923586263e-03 -2.699999999999999899e-05 -1.749826044060419057e-03 -1.798783704486969391e-03 5.099999999999999960e-05 1.319151333633633918e-03 2.694832974225416788e-03 7.999999999999999638e-06 1.450151387373918750e-03 2.801617738681973831e-03 9.699999999999999963e-05 -9.033627257468910795e-04 -1.108636002361075828e-03 9.000000000000000228e-06 -1.302691431800797944e-03 -2.215965485632117715e-03 -3.130000000000000187e-04 -5.526795047874417032e-04 -1.036898435232645136e-03 9.699999999999999963e-05 -1.734957061660586872e-03 -1.812922776676949765e-03 -4.699999999999999724e-05 9.448709902487059491e-04 2.344303054595636010e-03 9.299999999999999727e-05 1.464294037988333281e-03 2.709482048346477465e-03 4.569999999999999952e-04 -1.044347300448588258e-03 -1.106323061336852900e-03 3.199999999999999855e-05 -8.797900009470737770e-04 -2.335908721297462985e-03 1.129999999999999955e-04 -4.377711852355155048e-04 -1.799001497880836110e-03 -1.169999999999999979e-04 -1.101176522508414725e-03 -1.946830312656004256e-03 1.160000000000000007e-04 1.922034876279854650e-03 6.391298259069775733e-04 1.789999999999999870e-04 1.292923200481528806e-03 1.167010967239211477e-03 -3.970000000000000005e-04 -3.626985181236030520e-04 -2.113714215534101461e-03 1.479999999999999925e-04 -1.304724282676249974e-03 -1.789928084084649925e-03 3.139999999999999888e-04 -4.654906128574633900e-04 -1.768742064107026125e-03 2.079999999999999872e-04 -7.287012733137289639e-04 -2.112305956596001715e-03 7.100000000000000462e-05 1.301137028381897263e-03 1.189935474457974899e-03 -1.999999999999999909e-06 1.028451157337728888e-03 1.654494852506554559e-03 1.769999999999999926e-04 -7.779169019970718930e-04 -2.027844001294793266e-03 5.899999999999999754e-05 -1.558263449909543484e-03 -2.383592880648037048e-03 2.900000000000000017e-05 -3.640666424109716072e-04 -1.723684565076685380e-03 -1.000000000000000082e-05 -7.505642186922666667e-04 -1.990097071406032696e-03 1.469999999999999953e-04 1.897790227830892067e-03 7.203591126303399020e-04 1.930000000000000021e-04 9.993779191261480989e-04 1.646765245796464466e-03 5.479999999999999845e-04 -3.594286017618895739e-04 -2.084743408728156368e-03 -1.350000000000000017e-04 -1.222202790560588705e-03 -1.841698764387354964e-03 8.000000000000000654e-05 -2.049947304293316119e-04 -1.287146907115192503e-03 9.100000000000000287e-05 -4.921857666352477071e-04 -3.024547928388914616e-03 2.449999999999999921e-04 3.579824034823520375e-04 2.573778078777771722e-03 1.310000000000000129e-04 7.718619820214931912e-04 1.162862881301941114e-03 -2.699999999999999899e-05 -8.951118511236276607e-05 -8.062014312439419114e-04 2.500000000000000120e-05 -5.433704858996085772e-04 -2.185034900191121492e-03 4.629999999999999784e-04 -2.770102326094343241e-04 -1.288476360291358801e-03 -5.099999999999999960e-05 -1.645473764223666878e-04 -2.420572692755273893e-03 7.899999999999999579e-05 5.508486700685924584e-04 2.128962832621476842e-03 -1.679999999999999907e-04 5.402402085152039008e-04 7.750029142548104256e-04 1.150000000000000035e-04 -1.796004024322428590e-04 -8.153629225358339973e-04 7.100000000000000462e-05 1.959226595360910909e-04 -2.693941222721888719e-03 -1.310000000000000129e-04 -3.833351332891803132e-04 -1.215483103784732385e-03 1.230000000000000082e-04 -1.276177426815930448e-04 -2.320912258520958175e-03 7.100000000000000462e-05 3.334956444382502182e-04 2.629008492785962162e-03 2.930000000000000204e-04 5.541149677936777450e-04 8.688777833890169548e-04 3.040000000000000167e-04 -2.103941955505995629e-04 -7.930752060672531783e-04 4.399999999999999886e-05 -6.289942793495790748e-04 -2.144235807122319044e-03