8.369776277999999792e+00 0.000000000000000000e+00 0.000000000000000000e+00 0.000000000000000000e+00 1.449687839399999945e+01 0.000000000000000000e+00 0.000000000000000000e+00 0.000000000000000000e+00 1.947020595300000068e+01
8.369776277999999792e+00 0.000000000000000000e+00 0.000000000000000000e+00 0.000000000000000000e+00 1.449687839399999945e+01 0.000000000000000000e+00 0.000000000000000000e+00 0.000000000000000000e+00 1.947020595300000068e+01
8.369776277999999792e+00 0.000000000000000000e+00 0.000000000000000000e+00 0.000000000000000000e+00 1.449687839399999945e+01 0.000000000000000000e+00 0.000000000000000000e+00 0.000000000000000000e+00 1.947020595300000068e+01
8.369776277999999792e+00 0.000000000000000000e+00 0.000000000000000000e+00 0.000000000000000000e+00 1.449687839399999945e+01 0.000000000000000000e+00 0.000000000000000000e+00 0.000000000000000000e+00 1.947020595300000068e+01
8.369776277999999792e+00 0.000000000000000000e+00 0.000000000000000000e+00 0.000000000000000000e+00 1.449687839399999945e+01 0.000000000000000000e+00 0.000000000000000000e+00 0.000000000000000000e+00 1.947020595300000068e+01
