9.000000000000000567e-05 1.449663999999999930e+01 4.433500000000000441e+00 1.395049999999999901e+00 2.415919999999999845e+00 4.433510000000000062e+00 1.299999999999999886e-04 3.221680000000000099e+00 2.031159999999999854e+00 1.395100000000000007e+00 8.055400000000000338e-01 2.031179999999999986e+00 2.790010000000000101e+00 1.449663999999999930e+01 4.433500000000000441e+00 4.184980000000000366e+00 2.415919999999999845e+00 4.433510000000000062e+00 2.790059999999999985e+00 3.221680000000000099e+00 2.031159999999999854e+00 4.185019999999999740e+00 8.055400000000000338e-01 2.031179999999999986e+00 5.579939999999999678e+00 1.449663999999999930e+01 4.433500000000000441e+00 6.974910000000000387e+00 2.415919999999999845e+00 4.433510000000000062e+00 5.579979999999999940e+00 3.221680000000000099e+00 2.031159999999999854e+00 6.974949999999999761e+00 8.055400000000000338e-01 2.031179999999999986e+00 9.000000000000000567e-05 4.832060000000000244e+00 4.433500000000000441e+00 1.395049999999999901e+00 7.248210000000000264e+00 4.433510000000000062e+00 1.299999999999999886e-04 8.053969999999999629e+00 2.031159999999999854e+00 1.395100000000000007e+00 5.637830000000000119e+00 2.031179999999999986e+00 2.790010000000000101e+00 4.832060000000000244e+00 4.433500000000000441e+00 4.184980000000000366e+00 7.248210000000000264e+00 4.433510000000000062e+00 2.790059999999999985e+00 8.053969999999999629e+00 2.031159999999999854e+00 4.185019999999999740e+00 5.637830000000000119e+00 2.031179999999999986e+00 5.579939999999999678e+00 4.832060000000000244e+00 4.433500000000000441e+00 6.974910000000000387e+00 7.248210000000000264e+00 4.433510000000000062e+00 5.579979999999999940e+00 8.053969999999999629e+00 2.031159999999999854e+00 6.974949999999999761e+00 5.637830000000000119e+00 2.031179999999999986e+00 9.000000000000000567e-05 9.664350000000000662e+00 4.433500000000000441e+00 1.395049999999999901e+00 1.208051000000000030e+01 4.433510000000000062e+00 1.299999999999999886e-04 1.288626000000000005e+01 2.031159999999999854e+00 1.395100000000000007e+00 1.047012999999999927e+01 2.031179999999999986e+00 2.790010000000000101e+00 9.664350000000000662e+00 4.433500000000000441e+00 4.184980000000000366e+00 1.208051000000000030e+01 4.433510000000000062e+00 2.790059999999999985e+00 1.288626000000000005e+01 2.031159999999999854e+00 4.185019999999999740e+00 1.047012999999999927e+01 2.031179999999999986e+00 5.579939999999999678e+00 9.664350000000000662e+00 4.433500000000000441e+00 6.974910000000000387e+00 1.208051000000000030e+01 4.433510000000000062e+00 5.579979999999999940e+00 1.288626000000000005e+01 2.031159999999999854e+00 6.974949999999999761e+00 1.047012999999999927e+01 2.031179999999999986e+00 9.000000000000000567e-05 1.449663999999999930e+01 1.092356999999999978e+01 1.395049999999999901e+00 2.415919999999999845e+00 1.092357999999999940e+01 1.299999999999999886e-04 3.221680000000000099e+00 8.521229999999999194e+00 1.395100000000000007e+00 8.055400000000000338e-01 8.521250000000000213e+00 2.790010000000000101e+00 1.449663999999999930e+01 1.092356999999999978e+01 4.184980000000000366e+00 2.415919999999999845e+00 1.092357999999999940e+01 2.790059999999999985e+00 3.221680000000000099e+00 8.521229999999999194e+00 4.185019999999999740e+00 8.055400000000000338e-01 8.521250000000000213e+00 5.579939999999999678e+00 1.449663999999999930e+01 1.092356999999999978e+01 6.974910000000000387e+00 2.415919999999999845e+00 1.092357999999999940e+01 5.579979999999999940e+00 3.221680000000000099e+00 8.521229999999999194e+00 6.974949999999999761e+00 8.055400000000000338e-01 8.521250000000000213e+00 9.000000000000000567e-05 4.832060000000000244e+00 1.092356999999999978e+01 1.395049999999999901e+00 7.248210000000000264e+00 1.092357999999999940e+01 1.299999999999999886e-04 8.053969999999999629e+00 8.521229999999999194e+00 1.395100000000000007e+00 5.637830000000000119e+00 8.521250000000000213e+00 2.790010000000000101e+00 4.832060000000000244e+00 1.092356999999999978e+01 4.184980000000000366e+00 7.248210000000000264e+00 1.092357999999999940e+01 2.790059999999999985e+00 8.053969999999999629e+00 8.521229999999999194e+00 4.185019999999999740e+00 5.637830000000000119e+00 8.521250000000000213e+00 5.579939999999999678e+00 4.832060000000000244e+00 1.092356999999999978e+01 6.974910000000000387e+00 7.248210000000000264e+00 1.092357999999999940e+01 5.579979999999999940e+00 8.053969999999999629e+00 8.521229999999999194e+00 6.974949999999999761e+00 5.637830000000000119e+00 8.521250000000000213e+00 9.000000000000000567e-05 9.664350000000000662e+00 1.092356999999999978e+01 1.395049999999999901e+00 1.208051000000000030e+01 1.092357999999999940e+01 1.299999999999999886e-04 1.288626000000000005e+01 8.521229999999999194e+00 1.395100000000000007e+00 1.047012999999999927e+01 8.521250000000000213e+00 2.790010000000000101e+00 9.664350000000000662e+00 1.092356999999999978e+01 4.184980000000000366e+00 1.208051000000000030e+01 1.092357999999999940e+01 2.790059999999999985e+00 1.288626000000000005e+01 8.521229999999999194e+00 4.185019999999999740e+00 1.047012999999999927e+01 8.521250000000000213e+00 5.579939999999999678e+00 9.664350000000000662e+00 1.092356999999999978e+01 6.974910000000000387e+00 1.208051000000000030e+01 1.092357999999999940e+01 5.579979999999999940e+00 1.288626000000000005e+01 8.521229999999999194e+00 6.974949999999999761e+00 1.047012999999999927e+01 8.521250000000000213e+00 9.000000000000000567e-05 1.449663999999999930e+01 1.741363000000000127e+01 1.395049999999999901e+00 2.415919999999999845e+00 1.741365000000000052e+01 1.299999999999999886e-04 3.221680000000000099e+00 1.501130000000000031e+01 1.395100000000000007e+00 8.055400000000000338e-01 1.501131999999999955e+01 2.790010000000000101e+00 1.449663999999999930e+01 1.741363000000000127e+01 4.184980000000000366e+00 2.415919999999999845e+00 1.741365000000000052e+01 2.790059999999999985e+00 3.221680000000000099e+00 1.501130000000000031e+01 4.185019999999999740e+00 8.055400000000000338e-01 1.501131999999999955e+01 5.579939999999999678e+00 1.449663999999999930e+01 1.741363000000000127e+01 6.974910000000000387e+00 2.415919999999999845e+00 1.741365000000000052e+01 5.579979999999999940e+00 3.221680000000000099e+00 1.501130000000000031e+01 6.974949999999999761e+00 8.055400000000000338e-01 1.501131999999999955e+01 9.000000000000000567e-05 4.832060000000000244e+00 1.741363000000000127e+01 1.395049999999999901e+00 7.248210000000000264e+00 1.741365000000000052e+01 1.299999999999999886e-04 8.053969999999999629e+00 1.501130000000000031e+01 1.395100000000000007e+00 5.637830000000000119e+00 1.501131999999999955e+01 2.790010000000000101e+00 4.832060000000000244e+00 1.741363000000000127e+01 4.184980000000000366e+00 7.248210000000000264e+00 1.741365000000000052e+01 2.790059999999999985e+00 8.053969999999999629e+00 1.501130000000000031e+01 4.185019999999999740e+00 5.637830000000000119e+00 1.501131999999999955e+01 5.579939999999999678e+00 4.832060000000000244e+00 1.741363000000000127e+01 6.974910000000000387e+00 7.248210000000000264e+00 1.741365000000000052e+01 5.579979999999999940e+00 8.053969999999999629e+00 1.501130000000000031e+01 6.974949999999999761e+00 5.637830000000000119e+00 1.501131999999999955e+01 9.000000000000000567e-05 9.664350000000000662e+00 1.741363000000000127e+01 1.395049999999999901e+00 1.208051000000000030e+01 1.741365000000000052e+01 1.299999999999999886e-04 1.288626000000000005e+01 1.501130000000000031e+01 1.395100000000000007e+00 1.047012999999999927e+01 1.501131999999999955e+01 2.790010000000000101e+00 9.664350000000000662e+00 1.741363000000000127e+01 4.184980000000000366e+00 1.208051000000000030e+01 1.741365000000000052e+01 2.790059999999999985e+00 1.288626000000000005e+01 1.501130000000000031e+01 4.185019999999999740e+00 1.047012999999999927e+01 1.501131999999999955e+01 5.579939999999999678e+00 9.664350000000000662e+00 1.741363000000000127e+01 6.974910000000000387e+00 1.208051000000000030e+01 1.741365000000000052e+01 5.579979999999999940e+00 1.288626000000000005e+01 1.501130000000000031e+01 6.974949999999999761e+00 1.047012999999999927e+01 1.501131999999999955e+01 1.100000000000000039e-04 1.610749999999999904e+00 3.232359999999999900e+00 9.000000000000000567e-05 3.221449999999999925e+00 5.512979999999999769e+00 1.395110000000000072e+00 2.416139999999999954e+00 9.516799999999999704e-01 1.499999999999999869e-04 1.449688000000000088e+01 9.516900000000000359e-01 1.395080000000000098e+00 4.026860000000000106e+00 3.232349999999999834e+00 1.395049999999999901e+00 8.053000000000000158e-01 5.512970000000000148e+00 2.790039999999999853e+00 1.610749999999999904e+00 3.232359999999999900e+00 2.790010000000000101e+00 3.221449999999999925e+00 5.512979999999999769e+00 4.185039999999999871e+00 2.416139999999999954e+00 9.516799999999999704e-01 2.790080000000000116e+00 1.449688000000000088e+01 9.516900000000000359e-01 4.184999999999999609e+00 4.026860000000000106e+00 3.232349999999999834e+00 4.184969999999999857e+00 8.053000000000000158e-01 5.512970000000000148e+00 5.579970000000000319e+00 1.610749999999999904e+00 3.232359999999999900e+00 5.579939999999999678e+00 3.221449999999999925e+00 5.512979999999999769e+00 6.974960000000000271e+00 2.416139999999999954e+00 9.516799999999999704e-01 5.580000000000000071e+00 1.449688000000000088e+01 9.516900000000000359e-01 6.974929999999999630e+00 4.026860000000000106e+00 3.232349999999999834e+00 6.974899999999999878e+00 8.053000000000000158e-01 5.512970000000000148e+00 1.100000000000000039e-04 6.443039999999999878e+00 3.232359999999999900e+00 9.000000000000000567e-05 8.053739999999999455e+00 5.512979999999999769e+00 1.395110000000000072e+00 7.248429999999999929e+00 9.516799999999999704e-01 1.499999999999999869e-04 4.832290000000000418e+00 9.516900000000000359e-01 1.395080000000000098e+00 8.859149999999999636e+00 3.232349999999999834e+00 1.395049999999999901e+00 5.637590000000000323e+00 5.512970000000000148e+00 2.790039999999999853e+00 6.443039999999999878e+00 3.232359999999999900e+00 2.790010000000000101e+00 8.053739999999999455e+00 5.512979999999999769e+00 4.185039999999999871e+00 7.248429999999999929e+00 9.516799999999999704e-01 2.790080000000000116e+00 4.832290000000000418e+00 9.516900000000000359e-01 4.184999999999999609e+00 8.859149999999999636e+00 3.232349999999999834e+00 4.184969999999999857e+00 5.637590000000000323e+00 5.512970000000000148e+00 5.579970000000000319e+00 6.443039999999999878e+00 3.232359999999999900e+00 5.579939999999999678e+00 8.053739999999999455e+00 5.512979999999999769e+00 6.974960000000000271e+00 7.248429999999999929e+00 9.516799999999999704e-01 5.580000000000000071e+00 4.832290000000000418e+00 9.516900000000000359e-01 6.974929999999999630e+00 8.859149999999999636e+00 3.232349999999999834e+00 6.974899999999999878e+00 5.637590000000000323e+00 5.512970000000000148e+00 1.100000000000000039e-04 1.127533000000000030e+01 3.232359999999999900e+00 9.000000000000000567e-05 1.288602999999999987e+01 5.512979999999999769e+00 1.395110000000000072e+00 1.208071999999999946e+01 9.516799999999999704e-01 1.499999999999999869e-04 9.664580000000000837e+00 9.516900000000000359e-01 1.395080000000000098e+00 1.369144999999999968e+01 3.232349999999999834e+00 1.395049999999999901e+00 1.046988999999999947e+01 5.512970000000000148e+00 2.790039999999999853e+00 1.127533000000000030e+01 3.232359999999999900e+00 2.790010000000000101e+00 1.288602999999999987e+01 5.512979999999999769e+00 4.185039999999999871e+00 1.208071999999999946e+01 9.516799999999999704e-01 2.790080000000000116e+00 9.664580000000000837e+00 9.516900000000000359e-01 4.184999999999999609e+00 1.369144999999999968e+01 3.232349999999999834e+00 4.184969999999999857e+00 1.046988999999999947e+01 5.512970000000000148e+00 5.579970000000000319e+00 1.127533000000000030e+01 3.232359999999999900e+00 5.579939999999999678e+00 1.288602999999999987e+01 5.512979999999999769e+00 6.974960000000000271e+00 1.208071999999999946e+01 9.516799999999999704e-01 5.580000000000000071e+00 9.664580000000000837e+00 9.516900000000000359e-01 6.974929999999999630e+00 1.369144999999999968e+01 3.232349999999999834e+00 6.974899999999999878e+00 1.046988999999999947e+01 5.512970000000000148e+00 1.100000000000000039e-04 1.610749999999999904e+00 9.722429999999999239e+00 9.000000000000000567e-05 3.221449999999999925e+00 1.200305000000000000e+01 1.395110000000000072e+00 2.416139999999999954e+00 7.441749999999999865e+00 1.499999999999999869e-04 1.449688000000000088e+01 7.441760000000000375e+00 1.395080000000000098e+00 4.026860000000000106e+00 9.722419999999999618e+00 1.395049999999999901e+00 8.053000000000000158e-01 1.200304000000000038e+01 2.790039999999999853e+00 1.610749999999999904e+00 9.722429999999999239e+00 2.790010000000000101e+00 3.221449999999999925e+00 1.200305000000000000e+01 4.185039999999999871e+00 2.416139999999999954e+00 7.441749999999999865e+00 2.790080000000000116e+00 1.449688000000000088e+01 7.441760000000000375e+00 4.184999999999999609e+00 4.026860000000000106e+00 9.722419999999999618e+00 4.184969999999999857e+00 8.053000000000000158e-01 1.200304000000000038e+01 5.579970000000000319e+00 1.610749999999999904e+00 9.722429999999999239e+00 5.579939999999999678e+00 3.221449999999999925e+00 1.200305000000000000e+01 6.974960000000000271e+00 2.416139999999999954e+00 7.441749999999999865e+00 5.580000000000000071e+00 1.449688000000000088e+01 7.441760000000000375e+00 6.974929999999999630e+00 4.026860000000000106e+00 9.722419999999999618e+00 6.974899999999999878e+00 8.053000000000000158e-01 1.200304000000000038e+01 1.100000000000000039e-04 6.443039999999999878e+00 9.722429999999999239e+00 9.000000000000000567e-05 8.053739999999999455e+00 1.200305000000000000e+01 1.395110000000000072e+00 7.248429999999999929e+00 7.441749999999999865e+00 1.499999999999999869e-04 4.832290000000000418e+00 7.441760000000000375e+00 1.395080000000000098e+00 8.859149999999999636e+00 9.722419999999999618e+00 1.395049999999999901e+00 5.637590000000000323e+00 1.200304000000000038e+01 2.790039999999999853e+00 6.443039999999999878e+00 9.722429999999999239e+00 2.790010000000000101e+00 8.053739999999999455e+00 1.200305000000000000e+01 4.185039999999999871e+00 7.248429999999999929e+00 7.441749999999999865e+00 2.790080000000000116e+00 4.832290000000000418e+00 7.441760000000000375e+00 4.184999999999999609e+00 8.859149999999999636e+00 9.722419999999999618e+00 4.184969999999999857e+00 5.637590000000000323e+00 1.200304000000000038e+01 5.579970000000000319e+00 6.443039999999999878e+00 9.722429999999999239e+00 5.579939999999999678e+00 8.053739999999999455e+00 1.200305000000000000e+01 6.974960000000000271e+00 7.248429999999999929e+00 7.441749999999999865e+00 5.580000000000000071e+00 4.832290000000000418e+00 7.441760000000000375e+00 6.974929999999999630e+00 8.859149999999999636e+00 9.722419999999999618e+00 6.974899999999999878e+00 5.637590000000000323e+00 1.200304000000000038e+01 1.100000000000000039e-04 1.127533000000000030e+01 9.722429999999999239e+00 9.000000000000000567e-05 1.288602999999999987e+01 1.200305000000000000e+01 1.395110000000000072e+00 1.208071999999999946e+01 7.441749999999999865e+00 1.499999999999999869e-04 9.664580000000000837e+00 7.441760000000000375e+00 1.395080000000000098e+00 1.369144999999999968e+01 9.722419999999999618e+00 1.395049999999999901e+00 1.046988999999999947e+01 1.200304000000000038e+01 2.790039999999999853e+00 1.127533000000000030e+01 9.722429999999999239e+00 2.790010000000000101e+00 1.288602999999999987e+01 1.200305000000000000e+01 4.185039999999999871e+00 1.208071999999999946e+01 7.441749999999999865e+00 2.790080000000000116e+00 9.664580000000000837e+00 7.441760000000000375e+00 4.184999999999999609e+00 1.369144999999999968e+01 9.722419999999999618e+00 4.184969999999999857e+00 1.046988999999999947e+01 1.200304000000000038e+01 5.579970000000000319e+00 1.127533000000000030e+01 9.722429999999999239e+00 5.579939999999999678e+00 1.288602999999999987e+01 1.200305000000000000e+01 6.974960000000000271e+00 1.208071999999999946e+01 7.441749999999999865e+00 5.580000000000000071e+00 9.664580000000000837e+00 7.441760000000000375e+00 6.974929999999999630e+00 1.369144999999999968e+01 9.722419999999999618e+00 6.974899999999999878e+00 1.046988999999999947e+01 1.200304000000000038e+01 1.100000000000000039e-04 1.610749999999999904e+00 1.621249999999999858e+01 9.000000000000000567e-05 3.221449999999999925e+00 1.849312000000000111e+01 1.395110000000000072e+00 2.416139999999999954e+00 1.393182000000000009e+01 1.499999999999999869e-04 1.449688000000000088e+01 1.393182999999999971e+01 1.395080000000000098e+00 4.026860000000000106e+00 1.621248999999999896e+01 1.395049999999999901e+00 8.053000000000000158e-01 1.849311000000000149e+01 2.790039999999999853e+00 1.610749999999999904e+00 1.621249999999999858e+01 2.790010000000000101e+00 3.221449999999999925e+00 1.849312000000000111e+01 4.185039999999999871e+00 2.416139999999999954e+00 1.393182000000000009e+01 2.790080000000000116e+00 1.449688000000000088e+01 1.393182999999999971e+01 4.184999999999999609e+00 4.026860000000000106e+00 1.621248999999999896e+01 4.184969999999999857e+00 8.053000000000000158e-01 1.849311000000000149e+01 5.579970000000000319e+00 1.610749999999999904e+00 1.621249999999999858e+01 5.579939999999999678e+00 3.221449999999999925e+00 1.849312000000000111e+01 6.974960000000000271e+00 2.416139999999999954e+00 1.393182000000000009e+01 5.580000000000000071e+00 1.449688000000000088e+01 1.393182999999999971e+01 6.974929999999999630e+00 4.026860000000000106e+00 1.621248999999999896e+01 6.974899999999999878e+00 8.053000000000000158e-01 1.849311000000000149e+01 1.100000000000000039e-04 6.443039999999999878e+00 1.621249999999999858e+01 9.000000000000000567e-05 8.053739999999999455e+00 1.849312000000000111e+01 1.395110000000000072e+00 7.248429999999999929e+00 1.393182000000000009e+01 1.499999999999999869e-04 4.832290000000000418e+00 1.393182999999999971e+01 1.395080000000000098e+00 8.859149999999999636e+00 1.621248999999999896e+01 1.395049999999999901e+00 5.637590000000000323e+00 1.849311000000000149e+01 2.790039999999999853e+00 6.443039999999999878e+00 1.621249999999999858e+01 2.790010000000000101e+00 8.053739999999999455e+00 1.849312000000000111e+01 4.185039999999999871e+00 7.248429999999999929e+00 1.393182000000000009e+01 2.790080000000000116e+00 4.832290000000000418e+00 1.393182999999999971e+01 4.184999999999999609e+00 8.859149999999999636e+00 1.621248999999999896e+01 4.184969999999999857e+00 5.637590000000000323e+00 1.849311000000000149e+01 5.579970000000000319e+00 6.443039999999999878e+00 1.621249999999999858e+01 5.579939999999999678e+00 8.053739999999999455e+00 1.849312000000000111e+01 6.974960000000000271e+00 7.248429999999999929e+00 1.393182000000000009e+01 5.580000000000000071e+00 4.832290000000000418e+00 1.393182999999999971e+01 6.974929999999999630e+00 8.859149999999999636e+00 1.621248999999999896e+01 6.974899999999999878e+00 5.637590000000000323e+00 1.849311000000000149e+01 1.100000000000000039e-04 1.127533000000000030e+01 1.621249999999999858e+01 9.000000000000000567e-05 1.288602999999999987e+01 1.849312000000000111e+01 1.395110000000000072e+00 1.208071999999999946e+01 1.393182000000000009e+01 1.499999999999999869e-04 9.664580000000000837e+00 1.393182999999999971e+01 1.395080000000000098e+00 1.369144999999999968e+01 1.621248999999999896e+01 1.395049999999999901e+00 1.046988999999999947e+01 1.849311000000000149e+01 2.790039999999999853e+00 1.127533000000000030e+01 1.621249999999999858e+01 2.790010000000000101e+00 1.288602999999999987e+01 1.849312000000000111e+01 4.185039999999999871e+00 1.208071999999999946e+01 1.393182000000000009e+01 2.790080000000000116e+00 9.664580000000000837e+00 1.393182999999999971e+01 4.184999999999999609e+00 1.369144999999999968e+01 1.621248999999999896e+01 4.184969999999999857e+00 1.046988999999999947e+01 1.849311000000000149e+01 5.579970000000000319e+00 1.127533000000000030e+01 1.621249999999999858e+01 5.579939999999999678e+00 1.288602999999999987e+01 1.849312000000000111e+01 6.974960000000000271e+00 1.208071999999999946e+01 1.393182000000000009e+01 5.580000000000000071e+00 9.664580000000000837e+00 1.393182999999999971e+01 6.974929999999999630e+00 1.369144999999999968e+01 1.621248999999999896e+01 6.974899999999999878e+00 1.046988999999999947e+01 1.849311000000000149e+01