-2.608233251709999877e+03
-2.608161758849999842e+03
-2.607947317940000175e+03
-2.607592561949999890e+03
-2.607102175099999840e+03
