2.500000000000000052e-04 3.344000000000000184e-03 7.734000000000000423e-03 1.108999999999999960e-03 3.190000000000000127e-03 8.951000000000000623e-03 1.029999999999999964e-04 -3.122999999999999908e-03 -1.007000000000000083e-02 8.520000000000000013e-04 -3.354000000000000210e-03 -9.239999999999999949e-03 -2.489999999999999809e-04 3.334999999999999857e-03 9.058000000000000079e-03 2.259999999999999910e-04 3.057999999999999954e-03 7.867999999999999994e-03 -5.509999999999999490e-04 -3.090999999999999998e-03 -9.350999999999999937e-03 -3.199999999999999855e-05 -3.393999999999999882e-03 -1.014999999999999930e-02 8.570000000000000144e-04 3.380999999999999891e-03 9.043999999999999956e-03 -6.660000000000000338e-04 3.134000000000000067e-03 9.098999999999999450e-03 5.419999999999999471e-04 -3.053999999999999857e-03 -9.235999999999999419e-03 -8.279999999999999600e-04 -3.474000000000000091e-03 -9.180000000000000659e-03 2.849999999999999886e-04 3.389999999999999784e-03 8.054999999999999660e-03 1.018000000000000025e-03 3.112000000000000183e-03 9.138000000000000289e-03 -2.500000000000000120e-05 -2.952000000000000197e-03 -1.036399999999999995e-02 8.109999999999999805e-04 -3.164000000000000146e-03 -9.169999999999999332e-03 -3.190000000000000019e-04 3.335999999999999990e-03 9.336000000000000548e-03 1.820000000000000057e-04 2.988000000000000204e-03 7.938000000000000611e-03 -5.730000000000000501e-04 -2.993000000000000001e-03 -9.346999999999999406e-03 -4.800000000000000122e-05 -3.190000000000000127e-03 -1.014900000000000004e-02 8.880000000000000089e-04 3.333000000000000025e-03 9.216000000000000233e-03 -5.320000000000000293e-04 3.078000000000000007e-03 9.204999999999999641e-03 6.740000000000000114e-04 -2.890999999999999907e-03 -9.343000000000000610e-03 -7.479999999999999670e-04 -3.141999999999999828e-03 -9.247999999999999277e-03 2.730000000000000222e-04 3.297000000000000017e-03 7.959000000000000796e-03 1.046000000000000055e-03 2.942999999999999870e-03 8.890000000000000333e-03 -7.999999999999999638e-06 -3.151000000000000155e-03 -1.021999999999999992e-02 7.150000000000000322e-04 -3.276999999999999965e-03 -9.183999999999999456e-03 -3.609999999999999928e-04 3.322999999999999999e-03 9.138999999999999554e-03 1.849999999999999973e-04 2.910999999999999959e-03 7.715999999999999769e-03 -5.680000000000000370e-04 -3.053000000000000158e-03 -9.315000000000000363e-03 5.800000000000000034e-05 -3.255000000000000081e-03 -1.014499999999999950e-02 9.359999999999999831e-04 3.304000000000000079e-03 9.112999999999999573e-03 -5.779999999999999548e-04 2.949999999999999931e-03 8.947999999999999357e-03 6.890000000000000508e-04 -3.086999999999999900e-03 -9.301000000000000240e-03 -7.709999999999999840e-04 -3.285000000000000159e-03 -9.334999999999999548e-03 4.070000000000000267e-04 3.137000000000000031e-03 8.538999999999999715e-03 1.013999999999999927e-03 3.054999999999999990e-03 9.514999999999999153e-03 -1.200000000000000030e-05 -2.985999999999999939e-03 -1.063899999999999915e-02 8.260000000000000198e-04 -3.232000000000000064e-03 -9.546000000000000665e-03 -4.699999999999999859e-04 3.183000000000000065e-03 9.769999999999999171e-03 1.600000000000000131e-04 3.095000000000000095e-03 8.236999999999999530e-03 -4.490000000000000176e-04 -2.951000000000000064e-03 -9.797999999999999418e-03 2.099999999999999884e-05 -3.132999999999999934e-03 -1.066800000000000040e-02 9.210000000000000521e-04 3.229000000000000099e-03 9.544000000000000400e-03 -5.199999999999999544e-04 3.173000000000000039e-03 9.473000000000000517e-03 5.699999999999999772e-04 -2.895000000000000004e-03 -9.771999999999999437e-03 -8.170000000000000179e-04 -3.230999999999999931e-03 -9.690999999999999961e-03 2.120000000000000031e-04 3.585000000000000079e-03 8.484999999999999487e-03 9.479999999999999495e-04 3.259000000000000178e-03 9.646000000000000060e-03 3.000000000000000076e-05 -3.112999999999999882e-03 -1.052999999999999943e-02 8.390000000000000105e-04 -3.134000000000000067e-03 -9.660000000000000184e-03 -3.080000000000000055e-04 3.560999999999999929e-03 9.636999999999999733e-03 2.730000000000000222e-04 3.148999999999999889e-03 8.425000000000000197e-03 -6.120000000000000223e-04 -3.141999999999999828e-03 -9.577999999999999708e-03 6.000000000000000152e-06 -3.250999999999999984e-03 -1.055299999999999988e-02 9.499999999999999981e-04 3.642999999999999971e-03 9.584999999999999770e-03 -5.749999999999999903e-04 3.233000000000000197e-03 9.742000000000000659e-03 6.729999999999999871e-04 -3.102999999999999856e-03 -9.542999999999999400e-03 -8.319999999999999488e-04 -3.225000000000000002e-03 -9.638999999999999999e-03 2.489999999999999809e-04 3.271000000000000036e-03 8.595000000000000209e-03 9.680000000000000019e-04 2.882000000000000013e-03 9.702999999999999819e-03 2.000000000000000164e-05 -3.190000000000000127e-03 -1.049300000000000059e-02 7.389999999999999651e-04 -3.396999999999999846e-03 -9.511999999999999622e-03 -4.060000000000000024e-04 3.242999999999999789e-03 9.794000000000000622e-03 1.050000000000000044e-04 2.814000000000000095e-03 8.408000000000000543e-03 -6.030000000000000204e-04 -3.065000000000000016e-03 -9.662999999999999715e-03 -4.300000000000000165e-05 -3.392000000000000050e-03 -1.037599999999999981e-02 1.013999999999999927e-03 3.194999999999999923e-03 9.790000000000000091e-03 -4.459999999999999989e-04 2.814000000000000095e-03 9.742999999999999924e-03 6.669999999999999497e-04 -3.031999999999999973e-03 -9.613000000000000017e-03 -6.780000000000000002e-04 -3.410999999999999970e-03 -9.518999999999999684e-03 3.299999999999999982e-04 3.203999999999999817e-03 8.082999999999999907e-03 1.052999999999999900e-03 2.988000000000000204e-03 9.065000000000000141e-03 8.000000000000000654e-05 -2.913999999999999924e-03 -9.877999999999999628e-03 7.579999999999999932e-04 -3.396000000000000147e-03 -8.923000000000000376e-03 -3.620000000000000171e-04 3.275000000000000133e-03 9.358999999999999264e-03 1.689999999999999879e-04 2.974000000000000081e-03 7.936000000000000346e-03 -6.040000000000000447e-04 -2.903000000000000198e-03 -8.977000000000000604e-03 -1.310000000000000129e-04 -3.318000000000000203e-03 -9.809000000000000011e-03 9.009999999999999997e-04 3.255000000000000081e-03 9.237999999999999684e-03 -5.590000000000000351e-04 3.037000000000000203e-03 9.084999999999999326e-03 6.300000000000000261e-04 -2.785000000000000149e-03 -8.855999999999999289e-03 -6.049999999999999606e-04 -3.423999999999999960e-03 -8.899999999999999925e-03 2.339999999999999958e-04 3.389000000000000085e-03 7.747999999999999679e-03 9.799999999999999684e-04 3.183000000000000065e-03 8.871999999999999678e-03 -6.899999999999999667e-05 -2.997999999999999797e-03 -1.018699999999999987e-02 7.370000000000000249e-04 -3.003000000000000027e-03 -9.034000000000000363e-03 -2.970000000000000092e-04 3.357000000000000175e-03 9.036999999999999894e-03 2.519999999999999996e-04 3.112999999999999882e-03 7.668000000000000337e-03 -5.940000000000000184e-04 -3.070999999999999945e-03 -9.154000000000000678e-03 2.500000000000000120e-05 -3.010999999999999788e-03 -9.912999999999999937e-03 9.079999999999999530e-04 3.405000000000000041e-03 9.018999999999999240e-03 -5.710000000000000015e-04 3.183000000000000065e-03 8.970999999999999808e-03 7.540000000000000044e-04 -3.004999999999999859e-03 -9.213000000000000703e-03 -7.540000000000000044e-04 -2.948999999999999799e-03 -9.109000000000000777e-03 1.779999999999999898e-04 3.356000000000000042e-03 7.898000000000000506e-03 9.979999999999999722e-04 3.060999999999999919e-03 9.128000000000000697e-03 1.000000000000000048e-04 -3.268000000000000071e-03 -1.008599999999999948e-02 6.260000000000000373e-04 -3.382000000000000024e-03 -9.083000000000000795e-03 -3.119999999999999944e-04 3.383999999999999855e-03 9.076999999999999999e-03 1.920000000000000049e-04 2.919999999999999853e-03 8.014999999999999555e-03 -7.410000000000000137e-04 -3.187999999999999862e-03 -9.069999999999999937e-03 4.600000000000000004e-05 -3.484999999999999817e-03 -9.953999999999999307e-03 9.820000000000000170e-04 3.376000000000000095e-03 9.095000000000000653e-03 -5.330000000000000536e-04 2.945000000000000135e-03 9.244999999999999746e-03 7.259999999999999743e-04 -3.245000000000000055e-03 -8.959999999999999215e-03 -6.470000000000000057e-04 -3.544999999999999974e-03 -9.171999999999999598e-03 -1.699999999999999987e-05 -9.190000000000000035e-04 2.159999999999999919e-04 1.420000000000000092e-04 3.578000000000000017e-03 -2.699199999999999863e-02 3.519999999999999908e-04 -2.276999999999999944e-03 2.845800000000000066e-02 -2.730000000000000222e-04 -3.517000000000000161e-03 2.844100000000000100e-02 4.859999999999999954e-04 1.299999999999999940e-03 7.209999999999999612e-04 8.339999999999999974e-04 2.162999999999999992e-03 -2.684800000000000034e-02 -2.750000000000000166e-04 -6.960000000000000041e-04 -7.700000000000000139e-05 2.550000000000000183e-04 3.569999999999999823e-03 -2.678799999999999931e-02 -5.140000000000000254e-04 -2.082000000000000083e-03 2.906100000000000003e-02 -5.140000000000000254e-04 -3.284000000000000027e-03 2.773600000000000024e-02 1.500000000000000038e-05 1.150999999999999896e-03 1.046999999999999971e-03 3.249999999999999851e-04 2.145999999999999904e-03 -2.705799999999999872e-02 1.700000000000000122e-04 -7.450000000000000025e-04 1.140000000000000063e-04 2.429999999999999977e-04 3.503000000000000037e-03 -2.674500000000000141e-02 -9.280000000000000054e-04 -2.266999999999999918e-03 2.825700000000000087e-02 -3.220000000000000206e-04 -3.550000000000000204e-03 2.798700000000000146e-02 -6.319999999999999663e-04 1.371000000000000040e-03 7.870000000000000476e-04 -6.459999999999999814e-04 2.145999999999999904e-03 -2.683800000000000074e-02 -7.100000000000000462e-05 1.520000000000000084e-04 3.609999999999999928e-04 2.030000000000000012e-04 2.602000000000000146e-03 -2.621499999999999872e-02 1.699999999999999987e-05 -1.062000000000000010e-03 2.757499999999999882e-02 -2.910000000000000260e-04 -9.499999999999999981e-04 2.886599999999999930e-02 2.950000000000000148e-04 4.079999999999999968e-04 -3.640000000000000115e-04 7.659999999999999708e-04 3.340000000000000087e-03 -2.632699999999999971e-02 -3.640000000000000115e-04 8.799999999999999771e-05 5.300000000000000078e-05 -6.999999999999999387e-05 2.550000000000000183e-03 -2.585199999999999998e-02 -2.390000000000000089e-04 -1.247000000000000062e-03 2.807400000000000173e-02 -3.739999999999999835e-04 -1.276000000000000007e-03 2.818299999999999972e-02 -1.099999999999999971e-05 2.779999999999999811e-04 -1.550000000000000000e-04 1.399999999999999877e-04 3.069999999999999812e-03 -2.669600000000000098e-02 3.359999999999999814e-04 1.800000000000000046e-05 3.199999999999999855e-05 4.560000000000000251e-04 2.684999999999999887e-03 -2.577199999999999977e-02 -9.409999999999999962e-04 -1.124999999999999915e-03 2.754500000000000004e-02 -3.150000000000000131e-04 -1.136999999999999990e-03 2.810299999999999951e-02 -4.739999999999999747e-04 3.860000000000000041e-04 -4.449999999999999746e-04 -4.780000000000000178e-04 3.327999999999999795e-03 -2.652399999999999897e-02 -8.200000000000000095e-05 -1.998000000000000210e-03 -7.699999999999999597e-04 1.499999999999999869e-04 1.384000000000000031e-03 -2.647899999999999907e-02 2.199999999999999943e-05 -3.471000000000000127e-03 2.704099999999999906e-02 -5.779999999999999548e-04 -2.442000000000000160e-03 2.764000000000000137e-02 4.589999999999999896e-04 -3.229999999999999907e-04 -4.769999999999999934e-04 5.529999999999999976e-04 1.062000000000000010e-03 -2.594399999999999831e-02 -4.820000000000000066e-04 -1.822999999999999968e-03 -9.759999999999999796e-04 1.540000000000000028e-04 1.546000000000000065e-03 -2.618399999999999894e-02 -1.939999999999999993e-04 -3.426999999999999925e-03 2.782899999999999957e-02 -6.130000000000000466e-04 -2.442000000000000160e-03 2.695099999999999926e-02 -1.500000000000000038e-05 -3.950000000000000061e-04 -1.320000000000000101e-04 7.200000000000000182e-05 1.082000000000000062e-03 -2.619000000000000147e-02 3.770000000000000022e-04 -1.748999999999999904e-03 -1.160000000000000007e-03 3.029999999999999924e-04 1.654000000000000088e-03 -2.618799999999999947e-02 -8.930000000000000221e-04 -3.638999999999999874e-03 2.726100000000000051e-02 9.999999999999999547e-07 -2.389000000000000064e-03 2.700599999999999876e-02 -5.609999999999999752e-04 -3.420000000000000188e-04 -4.369999999999999970e-04 -2.620000000000000258e-04 1.013000000000000012e-03 -2.599200000000000121e-02 5.300000000000000078e-05 -8.660000000000000163e-04 -5.339999999999999695e-04 3.080000000000000055e-04 3.180999999999999800e-03 -2.531100000000000017e-02 4.099999999999999912e-04 -1.647999999999999942e-03 2.559200000000000016e-02 -3.330000000000000169e-04 -2.804000000000000069e-03 2.612899999999999945e-02 4.859999999999999954e-04 1.399000000000000070e-03 -8.959999999999999866e-04 7.069999999999999462e-04 1.463000000000000108e-03 -2.493199999999999930e-02 -3.669999999999999760e-04 -8.050000000000000515e-04 -9.120000000000000502e-04 -5.700000000000000314e-05 3.056000000000000123e-03 -2.494700000000000042e-02 -3.209999999999999963e-04 -1.711999999999999980e-03 2.613299999999999998e-02 -3.069999999999999812e-04 -2.755000000000000070e-03 2.546700000000000005e-02 -8.700000000000000051e-05 1.211999999999999970e-03 -7.709999999999999840e-04 -1.150000000000000035e-04 1.564000000000000069e-03 -2.521800000000000083e-02 1.710000000000000094e-04 -8.469999999999999881e-04 -1.111999999999999924e-03 3.939999999999999817e-04 3.425999999999999792e-03 -2.501899999999999957e-02 -1.257000000000000088e-03 -1.683000000000000034e-03 2.548500000000000071e-02 -4.200000000000000174e-04 -2.586000000000000191e-03 2.534700000000000147e-02 -5.980000000000000072e-04 1.467999999999999904e-03 -8.580000000000000387e-04 -1.179999999999999951e-04 1.551999999999999994e-03 -2.503999999999999976e-02 -9.500000000000000523e-05 -6.299999999999999990e-05 -5.529999999999999976e-04 -7.299999999999999903e-05 3.053999999999999857e-03 -2.411299999999999902e-02 1.320000000000000101e-04 -1.931999999999999907e-03 2.471299999999999886e-02 -3.829999999999999854e-04 -1.025000000000000086e-03 2.570899999999999921e-02 3.269999999999999795e-04 3.710000000000000190e-04 -1.600000000000000131e-04 4.899999999999999842e-04 3.500000000000000073e-03 -2.468000000000000055e-02 -3.829999999999999854e-04 -1.010000000000000020e-04 -1.075999999999999917e-03 -6.499999999999999431e-05 3.030000000000000141e-03 -2.394699999999999954e-02 -3.579999999999999741e-04 -2.054999999999999969e-03 2.520700000000000024e-02 -4.380000000000000213e-04 -1.325000000000000006e-03 2.499099999999999933e-02 -6.299999999999999990e-05 1.990000000000000124e-04 1.060000000000000016e-04 3.869999999999999742e-04 3.374999999999999962e-03 -2.509799999999999878e-02 3.840000000000000097e-04 -6.099999999999999872e-05 -8.159999999999999936e-04 7.119999999999999593e-04 3.082999999999999803e-03 -2.398700000000000138e-02 -8.379999999999999862e-04 -1.866999999999999953e-03 2.476499999999999882e-02 -2.950000000000000148e-04 -1.405999999999999915e-03 2.517499999999999946e-02 -4.330000000000000081e-04 3.570000000000000040e-04 2.799999999999999958e-05 -3.400000000000000244e-04 3.602000000000000167e-03 -2.474099999999999910e-02 -6.399999999999999710e-05 -1.763999999999999943e-03 2.759999999999999867e-04 4.139999999999999800e-04 1.247999999999999977e-03 -2.457700000000000162e-02 2.169999999999999891e-04 -3.501999999999999905e-03 2.485100000000000156e-02 -2.779999999999999811e-04 -2.948999999999999799e-03 2.499099999999999933e-02 4.679999999999999915e-04 -4.350000000000000026e-04 6.799999999999999946e-05 3.400000000000000244e-04 1.789999999999999925e-03 -2.404099999999999987e-02 -4.110000000000000155e-04 -1.570999999999999914e-03 -1.310000000000000129e-04 -3.519999999999999908e-04 1.711000000000000064e-03 -2.446699999999999917e-02 -4.040000000000000080e-04 -3.196000000000000056e-03 2.544499999999999887e-02 -6.359999999999999551e-04 -2.858999999999999996e-03 2.422699999999999854e-02 -1.359999999999999989e-04 -3.899999999999999929e-04 3.399999999999999973e-05 2.269999999999999882e-04 1.454999999999999913e-03 -2.414399999999999880e-02 3.600000000000000227e-04 -1.722000000000000006e-03 -1.959999999999999937e-04 5.810000000000000277e-04 1.407999999999999963e-03 -2.452100000000000113e-02 -8.779999999999999827e-04 -3.527999999999999886e-03 2.496200000000000155e-02 -5.500000000000000196e-05 -2.981000000000000143e-03 2.414699999999999833e-02 -5.680000000000000370e-04 -4.789999999999999879e-04 -9.299999999999999727e-05 -6.000000000000000152e-05 1.474999999999999966e-03 -2.393100000000000088e-02 1.240000000000000054e-04 -1.007000000000000083e-03 -1.469999999999999953e-04 3.759999999999999779e-04 2.964000000000000055e-03 -2.629099999999999840e-02 2.759999999999999867e-04 -2.317000000000000049e-03 2.607699999999999949e-02 8.799999999999999771e-05 -3.357999999999999874e-03 2.638800000000000173e-02 5.230000000000000274e-04 1.407999999999999963e-03 -2.349999999999999930e-04 9.449999999999999850e-04 1.409000000000000096e-03 -2.595300000000000037e-02 -4.040000000000000080e-04 -8.199999999999999824e-04 -2.750000000000000166e-04 8.600000000000000331e-05 3.181999999999999933e-03 -2.565900000000000125e-02 -5.779999999999999548e-04 -1.948000000000000079e-03 2.684999999999999887e-02 -9.629999999999999888e-04 -3.256999999999999913e-03 2.563599999999999907e-02 -1.169999999999999979e-04 1.348999999999999939e-03 2.820000000000000241e-04 -3.899999999999999929e-05 1.315999999999999896e-03 -2.621899999999999925e-02 1.939999999999999993e-04 -7.100000000000000191e-04 -1.550000000000000000e-04 3.600000000000000091e-05 3.269000000000000204e-03 -2.575799999999999965e-02 -7.439999999999999782e-04 -2.000000000000000042e-03 2.616599999999999829e-02 -9.299999999999999727e-05 -3.243999999999999922e-03 2.582600000000000173e-02 -6.109999999999999980e-04 1.516999999999999902e-03 -2.519999999999999996e-04 -5.199999999999999544e-04 1.240999999999999916e-03 -2.612599999999999992e-02 -6.099999999999999872e-05 2.280000000000000126e-04 -2.950000000000000148e-04 5.899999999999999754e-05 3.253999999999999948e-03 -2.510499999999999884e-02 -1.129999999999999955e-04 -1.343999999999999926e-03 2.544700000000000087e-02 -4.519999999999999821e-04 -8.790000000000000070e-04 2.648700000000000013e-02 3.049999999999999868e-04 4.229999999999999819e-04 -3.029999999999999924e-04 8.170000000000000179e-04 3.575000000000000053e-03 -2.563800000000000107e-02 -4.079999999999999968e-04 1.679999999999999907e-04 -4.330000000000000081e-04 1.039999999999999936e-04 3.249000000000000152e-03 -2.488900000000000140e-02 -3.000000000000000076e-05 -1.459999999999999926e-03 2.615699999999999970e-02 -5.429999999999999714e-04 -1.231000000000000106e-03 2.597199999999999856e-02 4.699999999999999724e-05 3.829999999999999854e-04 1.069999999999999988e-04 5.700000000000000314e-05 3.305000000000000212e-03 -2.578000000000000083e-02 3.400000000000000244e-04 2.649999999999999903e-04 -6.139999999999999625e-04 4.899999999999999842e-04 3.425999999999999792e-03 -2.471100000000000033e-02 -8.499999999999999526e-04 -1.399999999999999986e-03 2.548399999999999971e-02 -8.700000000000000051e-05 -9.719999999999999907e-04 2.598999999999999921e-02 -5.169999999999999899e-04 4.420000000000000101e-04 -2.750000000000000166e-04 -3.400000000000000244e-04 3.683000000000000076e-03 -2.562199999999999894e-02 -8.399999999999999535e-05 -2.027000000000000156e-03 -1.440000000000000036e-04 1.279999999999999942e-04 1.253999999999999906e-03 -2.581900000000000167e-02 -1.620000000000000075e-04 -3.454000000000000039e-03 2.538999999999999937e-02 -4.699999999999999859e-04 -2.661999999999999870e-03 2.575500000000000012e-02 4.690000000000000158e-04 -4.910000000000000085e-04 -7.100000000000000462e-05 4.440000000000000045e-04 1.670999999999999959e-03 -2.521299999999999930e-02 -4.519999999999999821e-04 -1.815999999999999906e-03 -2.380000000000000117e-04 3.000000000000000076e-06 1.533000000000000074e-03 -2.539800000000000044e-02 -5.010000000000000347e-04 -3.631999999999999812e-03 2.600799999999999987e-02 -7.799999999999999859e-04 -2.645999999999999915e-03 2.495599999999999902e-02 -2.049999999999999956e-04 -4.920000000000000328e-04 6.199999999999999999e-04 4.290000000000000193e-04 1.608000000000000054e-03 -2.532099999999999976e-02 4.459999999999999989e-04 -1.863999999999999988e-03 -1.489999999999999897e-04 4.440000000000000045e-04 1.268000000000000030e-03 -2.540800000000000003e-02 -4.670000000000000214e-04 -3.756999999999999923e-03 2.526899999999999979e-02 2.280000000000000126e-04 -2.975999999999999913e-03 2.494100000000000136e-02 -5.180000000000000143e-04 -6.300000000000000261e-04 1.630000000000000047e-04 -3.710000000000000190e-04 1.662000000000000066e-03 -2.506099999999999994e-02