1.525033073376759148e+03 3.954642908335345014e-02 5.811054325782846058e-02 3.954642908335345014e-02 1.526061575435455097e+03 5.594006064743710649e-01 5.811054325782846058e-02 5.594006064743710649e-01 1.316620767474982131e+03
1.525248809321546105e+03 2.132440184203794054e-01 1.952549641766466726e-01 2.132440184203794054e-01 1.526172620982594026e+03 6.673791673160553994e-01 1.952549641766466726e-01 6.673791673160553994e-01 1.316970153245724305e+03
1.525497161485994638e+03 3.938128366734540697e-01 3.446525851582041278e-01 3.938128366734540697e-01 1.526312861880062883e+03 7.674248501387821442e-01 3.446525851582041278e-01 7.674248501387821442e-01 1.317415190651612875e+03
1.526841091289265933e+03 5.664930122868591100e-01 5.155338553472358365e-01 5.664930122868591100e-01 1.527535734195349505e+03 8.702573618566443736e-01 5.155338553472358365e-01 8.702573618566443736e-01 1.318893374831022811e+03
1.527976333318183151e+03 7.415766435082382646e-01 6.989337378747340068e-01 7.415766435082382646e-01 1.528552749800556967e+03 9.645966807512362795e-01 6.989337378747340068e-01 9.645966807512362795e-01 1.320265895434440381e+03
