-1.412880853970000089e+03
-1.412880855359999941e+03
-1.412880858239999952e+03
-1.412880862530000059e+03
-1.412880868360000022e+03
