-4.702363312100000030e+02
-4.702363328100000217e+02
-4.702363359899999864e+02
-4.702363408499999764e+02
-4.702363474900000142e+02
-4.702363560399999756e+02
