1.699080001076453406e-01 -1.317987148372801523e-03 1.442999063448914239e-03 -3.359996675696978480e-03 -4.179600022457376218e-02 2.957700006029575363e-02 2.267000108490444411e-03 -1.327999827088840621e-03 1.458999988812995563e-03 -3.572999982028987956e-03 -2.020002697394580415e-04 4.880000199242166717e-04 5.799988827746733333e-05 1.487000004520400154e-03 1.339999981945190553e-04 1.501100101433303600e-02 -1.447599887927978300e-02 -1.458200006839881387e-02 -1.565499910093760480e-02 -1.291800119809379151e-02 -1.411799990068317648e-02 -6.829999944633360041e-04 -9.700005198109954590e-05 -3.259999961330476781e-04 1.300005443294183471e-05 -7.359999992395540409e-04 -2.229999993365850385e-04 1.426000058025374837e-03 -8.169998928324842709e-04 -6.820000070552318218e-04 1.500035898915133999e-05 -4.938000001484586440e-03 -2.621999995150346100e-03 -1.167999943363561390e-03 -7.990000890223670745e-04 -6.869999927547064443e-04 -1.337999927364218709e-03 -8.710000999696580152e-04 1.225000008255588014e-03 6.980001872329991228e-04 -2.418999946434944540e-03 7.759999985634231197e-04 -4.100002358939030893e-05 3.029999967772956083e-04 -1.220000000763454893e-04 -5.809999065350056032e-04 -1.278000044518526942e-03 -5.779999955163998317e-04 -1.008999830426249474e-03 -7.950000565051965973e-04 1.982800000636364066e-02 -3.815008056428574428e-03 1.079129997304818789e-01 1.903299991326649204e-02 -2.364999821377142524e-03 -9.110001590098817850e-04 1.987800001396443361e-02 -3.803000097022240025e-03 2.783999732923022295e-03 2.056800001821113694e-02 1.525000024012602550e-03 1.123000135050973092e-03 1.973699999046048259e-02 -4.409994891591308142e-04 -5.065000010230926407e-03 2.314800000749356323e-02 5.840004500572070975e-04 -4.313999933431103898e-03 2.242600000108556021e-02 -1.349999918395112944e-03 4.149999183461610406e-04 2.047000000703726869e-02 -1.316999872690710182e-03 -1.880000791400589428e-04 2.048800000745743671e-02 -5.169999193558995430e-04 3.879999808027767062e-04 1.992600000246620012e-02 -1.304999674172241299e-03 -2.823000078371332416e-03 2.034900001002323822e-02 -2.499999163897608304e-04 3.490000009990522670e-04 1.992900000103135436e-02 -3.619300062330172568e-02 1.095799729989325143e-02 3.722100018883443828e-02 2.995000394905029083e-03 -3.913999755592487487e-03 1.791499998737763541e-02 -8.679998715819620342e-04 -2.320000455836216497e-04 2.008600000502297478e-02 -3.337599881159736270e-02 -1.571500252425840974e-02 -2.299980007195963279e-05 -3.826099897445186387e-02 -1.591400292590602200e-02 -3.225299977290868592e-02 5.090000008473951482e-03 -1.057999627988428842e-03 -1.296100002703925308e-02 -2.352000131612047139e-03 2.599998018594109716e-04 -2.028099998727700762e-02 -3.191000119205025104e-02 1.574899758646662595e-02 -1.719998395927172267e-04 -2.144000082087658791e-03 -3.060001811938606537e-04 -1.906399998785977476e-02 -1.312999156916559848e-03 -1.367300013386762297e-02 -3.460399997909479469e-02 1.380999918804982993e-03 -3.169999145862147506e-04 -1.905300000730627760e-02 -1.311000370674846385e-03 3.416999880536560757e-03 -2.033499999617663020e-02 1.920000011723508281e-03 -1.594999874497741738e-03 -1.973000000900491588e-02 -8.190002144864196856e-04 1.308999917160312901e-03 -2.092199999678676786e-02 9.909998441315558907e-04 5.870000547772647121e-04 -2.019500000605651754e-02 -1.775000049432771780e-03 -8.390001546717362584e-04 -2.045099998936419916e-02 -3.786000522567172129e-03 5.257999691061242264e-03 -2.262799998435391716e-02 -5.660001601503643126e-04 6.749999374504704608e-04 -1.976499999755000625e-02 -3.809999970953686053e-03 -1.842000308104841224e-03 -1.997599997712942027e-02 -2.819000150771134618e-03 5.549997671104385695e-04 -1.970999998499390130e-02
1.698190001076287647e-01 -1.317987155106890938e-03 1.439999063940181241e-03 -3.357996677432602012e-03 -4.177400022443548966e-02 2.956400006026273924e-02 2.264000108344703822e-03 -1.325999827314732361e-03 1.459999988827557398e-03 -3.566999981866687732e-03 -2.040002692836787414e-04 4.900000198930952932e-04 5.899988834757773158e-05 1.486000004595031294e-03 1.329999981899980977e-04 1.500000101359329208e-02 -1.446599888010871929e-02 -1.457900006834808582e-02 -1.564399910143942155e-02 -1.291100119725686196e-02 -1.411299990075088641e-02 -6.849999946035566787e-04 -9.500005213036232866e-05 -3.239999961240057629e-04 1.300005435179172122e-05 -7.349999992405528921e-04 -2.239999993375839111e-04 1.424000058019854898e-03 -8.169998929847436609e-04 -6.830000070441921744e-04 1.700035854088964533e-05 -4.932000001332327230e-03 -2.620999995167378784e-03 -1.166999943358041584e-03 -7.990000889457379418e-04 -6.859999927602263101e-04 -1.334999927467448236e-03 -8.700000997477615964e-04 1.220000008238029563e-03 6.950001871463289040e-04 -2.417999946663833364e-03 7.739999985789837575e-04 -3.800002343812980280e-05 3.009999970041863857e-04 -1.220000000909073138e-04 -5.829999066106356922e-04 -1.277000044669787324e-03 -5.779999955063589269e-04 -1.004999830492487841e-03 -7.950000562146620738e-04 1.981600000634156297e-02 -3.812008053901304403e-03 1.078789997307007809e-01 1.902499991328389373e-02 -2.364999821507971032e-03 -9.100001590198705153e-04 1.986800001396343482e-02 -3.798000096808037008e-03 2.779999733285191260e-03 2.055200001818753563e-02 1.527000024027514282e-03 1.122000135191245735e-03 1.972599999045044142e-02 -4.409994891773380923e-04 -5.066000010247907748e-03 2.313100000749456278e-02 5.840004501256696942e-04 -4.315999933446086970e-03 2.241100000108755402e-02 -1.352999917905987892e-03 4.069999180982938522e-04 2.044900000706182178e-02 -1.312999872751428659e-03 -1.880000788485255709e-04 2.047700000743535656e-02 -5.129999196009976583e-04 3.899999810883167926e-04 1.990900000244212251e-02 -1.307999674504009297e-03 -2.820000078617201315e-03 2.033000001003680210e-02 -2.499999166238191543e-04 3.510000009840690753e-04 1.991400000102935830e-02 -3.616800062242340325e-02 1.094499730176502761e-02 3.720200018870942898e-02 2.994000394855350373e-03 -3.913999755677107298e-03 1.790599998738315324e-02 -8.649998716702796608e-04 -2.320000453727129124e-04 2.007000000500641645e-02 -3.334599881262858417e-02 -1.570100252198450286e-02 -1.799980025153956949e-05 -3.823199897508672979e-02 -1.590400292369076665e-02 -3.223099977307875702e-02 5.084000008711881888e-03 -1.060999628440212816e-03 -1.295900002700313761e-02 -2.350000131389029089e-03 2.579998020236568728e-04 -2.026799998728604987e-02 -3.187800119100799023e-02 1.573499758888379646e-02 -1.749998397553683338e-04 -2.141000081886719735e-03 -3.080001809579799429e-04 -1.905499998787433397e-02 -1.311999157206393627e-03 -1.366800013377601243e-02 -3.458799997910530499e-02 1.375999919059472986e-03 -3.199999149593716241e-04 -1.904800000727567902e-02 -1.308000370457347442e-03 3.414999880775437986e-03 -2.032299999619119335e-02 1.922000011666085296e-03 -1.592999874329500401e-03 -1.971300000901795441e-02 -8.170002141822509459e-04 1.305999917325557707e-03 -2.090799999679480992e-02 9.869998444302049197e-04 5.840000544877290995e-04 -2.018200000603144126e-02 -1.773000049436643851e-03 -8.380001545074903385e-04 -2.043799998937623902e-02 -3.781000521722551952e-03 5.247999691455376182e-03 -2.261199998437152942e-02 -5.680001601487166991e-04 6.759999373131941186e-04 -1.975099999753996208e-02 -3.807999971276639258e-03 -1.837000307943591941e-03 -1.996599997714545646e-02 -2.816000150704896406e-03 5.549997673493158468e-04 -1.969799998501046284e-02
1.696250001076177183e-01 -1.317987169781159032e-03 1.437999065011033150e-03 -3.354996681579002285e-03 -4.172100022423357035e-02 2.953900006019323857e-02 2.260000108080821926e-03 -1.321999827610261490e-03 1.466999988845641301e-03 -3.567999981575206616e-03 -2.080002693613067113e-04 4.880000199026106366e-04 5.099988886594984916e-05 1.479000003987991640e-03 1.309999982411490813e-04 1.498300101261726587e-02 -1.445199888137945095e-02 -1.456400006826823190e-02 -1.562899910214052279e-02 -1.290100119611241845e-02 -1.410299990084367197e-02 -6.899999943120754429e-04 -9.900005251051134116e-05 -3.259999960924109676e-04 1.200005489776309523e-05 -7.419999993131865847e-04 -2.209999993250719283e-04 1.424000057938704751e-03 -8.159998929857425120e-04 -6.840000070451910741e-04 1.900035780501876893e-05 -4.923000001191056227e-03 -2.630999995187408361e-03 -1.176999943584932382e-03 -7.960000897020405499e-04 -6.859999927080243608e-04 -1.341999927747889983e-03 -8.660001002731780150e-04 1.224000008272673173e-03 6.970001871408091710e-04 -2.417999946513571616e-03 7.729999985679440614e-04 -3.900002323883830252e-05 2.979999969235617324e-04 -1.270000000823908240e-04 -5.909999070754569936e-04 -1.271000045276827204e-03 -5.799999954681934328e-04 -1.002999830304235817e-03 -7.980000560703936520e-04 1.980900000633351726e-02 -3.809008050141871136e-03 1.078289997309236636e-01 1.902099991331727621e-02 -2.361999821476500148e-03 -9.110001588009708799e-04 1.986000001394787329e-02 -3.792000096748966275e-03 2.778999733735975936e-03 2.054900001815541596e-02 1.525000024258277341e-03 1.118000135027000068e-03 1.971299999046547888e-02 -4.379994892490962654e-04 -5.066000010034002465e-03 2.311800000747800399e-02 5.820004497679503661e-04 -4.311999933607335925e-03 2.240100000109460088e-02 -1.351999917961186227e-03 4.069999181639353549e-04 2.043900000705630229e-02 -1.308999872985487211e-03 -1.860000785609877065e-04 2.046200000741128441e-02 -5.099999197097470748e-04 3.909999813092143359e-04 1.990300000242456457e-02 -1.307999674585159445e-03 -2.819000078618200383e-03 2.032900001003580190e-02 -2.519999164410872267e-04 3.480000008248175384e-04 1.990600000104339462e-02 -3.612600062108191346e-02 1.092499730491053485e-02 3.717100018849757437e-02 2.990000394951412323e-03 -3.915999755989617130e-03 1.789599998740723161e-02 -8.589998716388082701e-04 -2.330000449269223968e-04 2.006200000497429525e-02 -3.330499881400871692e-02 -1.568100251885969423e-02 6.000199502168827062e-06 -3.819099897653697312e-02 -1.588300292056495436e-02 -3.220599977332604114e-02 5.086000008750521384e-03 -1.060999628281960282e-03 -1.295200002701417732e-02 -2.349000131269239795e-03 2.569998021072782178e-04 -2.025999998729056950e-02 -3.183200118948211615e-02 1.571299759233782053e-02 -1.999998399873064033e-04 -2.131000081346267911e-03 -3.150001801996795726e-04 -1.905299998792254340e-02 -1.313999157162234772e-03 -1.366800013391928151e-02 -3.457999997909426415e-02 1.369999919459703470e-03 -3.249999154091576248e-04 -1.904400000723756661e-02 -1.303000369964926871e-03 3.408999881160581797e-03 -2.031599999621279753e-02 1.922000011785874457e-03 -1.593999874321509313e-03 -1.970500000901695414e-02 -8.150002141546516636e-04 1.305999917481812491e-03 -2.090299999680585163e-02 9.879998446957346213e-04 5.810000545703515205e-04 -2.017500000603396348e-02 -1.779000049294775275e-03 -8.390001549492854009e-04 -2.042599998934211888e-02 -3.779000520023919132e-03 5.226999691626614888e-03 -2.259199998436159373e-02 -5.670001600399672938e-04 6.749999373948177128e-04 -1.974499999754448371e-02 -3.803999971416859895e-03 -1.835000307639073113e-03 -1.996399997716952895e-02 -2.812000150520516887e-03 5.529997676578301885e-04 -1.969199998503054494e-02
1.693610001073869997e-01 -1.313987189734561580e-03 1.450999066464279518e-03 -3.354996686227215089e-03 -4.166100022425354987e-02 2.951900006013330816e-02 2.259000108006839740e-03 -1.319999827671907659e-03 1.480999988849163347e-03 -3.563999981400218457e-03 -2.090002690408059212e-04 5.060000198815301723e-04 5.999988863683463524e-05 1.484000004695633715e-03 1.579999981864759699e-04 1.496600101124817735e-02 -1.443199888263919407e-02 -1.453800006819437260e-02 -1.560999910315905882e-02 -1.288600119465446898e-02 -1.408199990096353424e-02 -6.949999948713108397e-04 -9.000005286668737896e-05 -3.039999960738015662e-04 1.100005462448906123e-05 -7.369999993698381950e-04 -2.019999993245464415e-04 1.419000058351622918e-03 -8.199998933439162779e-04 -6.640000070135961777e-04 1.800035779727449857e-05 -4.921000001240715023e-03 -2.604999995183886457e-03 -1.170999943555685232e-03 -7.950000892292803482e-04 -6.669999927421423318e-04 -1.330999927628100663e-03 -8.670000994332542057e-04 1.232000008212953560e-03 6.900001869967162553e-04 -2.414999947027999996e-03 7.879999986035863798e-04 -4.500002339949079645e-05 3.009999964817667130e-04 -1.150000000522683196e-04 -5.889999066790984348e-04 -1.275000045108585795e-03 -5.629999954752376232e-04 -9.779998295904443126e-04 -8.070000541736439695e-04 1.981500000620451188e-02 -3.799008047249714110e-03 1.077919997316969664e-01 1.903799991329903699e-02 -2.375999821323591769e-03 -9.120001598458101410e-04 1.987400001402615107e-02 -3.796000096597705858e-03 2.776999733433455075e-03 2.054900001817949393e-02 1.529000023606851911e-03 1.128000135348499649e-03 1.973199999043340896e-02 -4.339994890371172962e-04 -5.068000009720493096e-03 2.312900000745792342e-02 5.830004507307117280e-04 -4.323999933521716771e-03 2.241100000110106752e-02 -1.355999918180909652e-03 4.109999178763974466e-04 2.045400000707438617e-02 -1.311999873188650833e-03 -1.820000787698987312e-04 2.048000000742384794e-02 -5.129999197947693063e-04 3.929999810943100641e-04 1.991500000243912744e-02 -1.305999674622150856e-03 -2.818000078459947932e-03 2.033600001002376645e-02 -2.469999166127794096e-04 3.510000012129575980e-04 1.991600000101279716e-02 -3.607200061900842775e-02 1.089699730898657792e-02 3.716300018822746992e-02 2.986000395417881537e-03 -3.920999756276155948e-03 1.791199998743430583e-02 -8.629998714102698251e-04 -2.350000452154591367e-04 2.007600000499836987e-02 -3.325499881480975528e-02 -1.566800251504521860e-02 3.900019921319066135e-05 -3.814299897742855217e-02 -1.586800291689074993e-02 -3.216199977360598150e-02 5.086000009248462482e-03 -1.066999628273969207e-03 -1.294400002700818453e-02 -2.351000131321142987e-03 2.589998019739974560e-04 -2.024199998728152747e-02 -3.178700118843985623e-02 1.569899759573818374e-02 -2.029998402217156209e-04 -2.125000081296588971e-03 -3.150001797369081499e-04 -1.904399998795566068e-02 -1.307999156944735864e-03 -1.367000013345351372e-02 -3.456799997912538697e-02 1.362999919806383558e-03 -3.289999159305784108e-04 -1.903600000719493299e-02 -1.305000370179130358e-03 3.412999881025302953e-03 -2.029999999620575243e-02 1.922000012294854468e-03 -1.599999874311520704e-03 -1.969500000901095935e-02 -8.140002135424421375e-04 1.298999917572425927e-03 -2.088799999680437947e-02 9.859998450368946156e-04 5.770000544260832538e-04 -2.016800000601892684e-02 -1.776000048785795083e-03 -8.450001547124059119e-04 -2.041599998935268723e-02 -3.774000518218185388e-03 5.203999692016752880e-03 -2.257999998436621691e-02 -5.700001599847686826e-04 6.749999371779156956e-04 -1.973499999752792444e-02 -3.799999971155201915e-03 -1.837000307316574623e-03 -1.994399997718961440e-02 -2.801000150070607521e-03 5.479997685027483863e-04 -1.967899998508626860e-02
1.688830001071214559e-01 -1.310987225892816825e-03 1.443999069099773710e-03 -3.337996696537728295e-03 -4.153000022304075001e-02 2.944600005990861621e-02 2.252000108003544138e-03 -1.321999828229288021e-03 1.452999988889800299e-03 -3.542999982390579710e-03 -1.970002674675536841e-04 4.910000197536266943e-04 6.299988872572902026e-05 1.481000004897552310e-03 1.329999981729130501e-04 1.490400100807335454e-02 -1.438899888731428808e-02 -1.452400006789509278e-02 -1.555399910657016480e-02 -1.283900119039320387e-02 -1.405599990131959319e-02 -6.779999947272180062e-04 -9.300005159595614254e-05 -3.189999961646424603e-04 2.200005429824086027e-05 -7.339999985558850505e-04 -2.199999993882614834e-04 1.418000057949744602e-03 -8.159998934375263047e-04 -6.820000070120719017e-04 1.600035691179082831e-05 -4.909000001387981045e-03 -2.600999995184833085e-03 -1.169999943347001985e-03 -7.990000891706309626e-04 -6.839999927436668081e-04 -1.333999927651827741e-03 -8.680000996781246517e-04 1.214000008230511993e-03 6.890001870005884590e-04 -2.415999947116616309e-03 7.749999986101051546e-04 -3.300002325927002794e-05 2.989999973873320549e-04 -1.170000001165088377e-04 -5.759999063727054038e-04 -1.280000044138377953e-03 -5.759999955420013742e-04 -9.959998300199221673e-04 -8.030000555579627471e-04 1.979200000629987438e-02 -3.797008039134620611e-03 1.076819997318112648e-01 1.900099991339787575e-02 -2.359999821026014313e-03 -9.190001586776788559e-04 1.983200001394482687e-02 -3.782000095783980779e-03 2.764999734475298045e-03 2.053200001811420275e-02 1.525000024144008070e-03 1.119000135020007747e-03 1.970599999046447962e-02 -4.459994891546819121e-04 -5.069000010663017065e-03 2.309400000752516099e-02 5.860004497221436804e-04 -4.312999933326790505e-03 2.237900000107351933e-02 -1.351999917687912202e-03 4.019999181449567080e-04 2.042000000706129664e-02 -1.299999871944870723e-03 -2.010000778972962591e-04 2.044500000737658682e-02 -5.049999192796927406e-04 3.839999816693858022e-04 1.988500000240395887e-02 -1.297999675398308229e-03 -2.810000077885870928e-03 2.030500000997161394e-02 -2.619999165349247341e-04 3.480000000515340829e-04 1.988900000109859387e-02 -3.598000061552053541e-02 1.084299731583668325e-02 3.705500018777357907e-02 2.998000395366554830e-03 -3.921999755391567671e-03 1.788899998736906416e-02 -8.489998718082760907e-04 -2.320000441876007369e-04 2.004500000491809750e-02 -3.315599881987038589e-02 -1.559700250750188470e-02 9.500019859580473704e-05 -3.804899898107099582e-02 -1.581400290970159939e-02 -3.208199977417878351e-02 5.084000009406889307e-03 -1.067999628410246397e-03 -1.292900002699614442e-02 -2.330000130968943196e-03 2.549998035712227489e-04 -2.023299998739344976e-02 -3.168300118366295520e-02 1.562999760352382084e-02 -2.829998407268581183e-04 -2.112000080551326188e-03 -3.250001787557124742e-04 -1.904599998801742924e-02 -1.305999158286225668e-03 -1.365000013327128878e-02 -3.453699997915640058e-02 1.343999920103384560e-03 -3.329999173685522173e-04 -1.903700000708605927e-02 -1.298000369697749519e-03 3.406999881559708877e-03 -2.029499999623840187e-02 1.927000013008645703e-03 -1.608999873927376058e-03 -1.968900000902957040e-02 -8.070002134706840465e-04 1.298999918114823217e-03 -2.087499999684301957e-02 9.759998448486429399e-04 5.800000536767727739e-04 -2.016100000596672548e-02 -1.777000048011284986e-03 -8.540001547710551798e-04 -2.039899998933817835e-02 -3.766000514096088433e-03 5.152999692669740263e-03 -2.253199998435943471e-02 -5.510001589833679776e-04 6.629999386318713916e-04 -1.971799999762081576e-02 -3.794999971651494795e-03 -1.830000306932430022e-03 -1.993799997722420572e-02 -2.817000150161149633e-03 5.499997673036519487e-04 -1.966799998499995164e-02
1.683870001073207445e-01 -1.313987263410419095e-03 1.438999071840618791e-03 -3.337996706798562578e-03 -4.139900022310467886e-02 2.938200005977776447e-02 2.235000107693855577e-03 -1.318999829529985670e-03 1.437999988980641223e-03 -3.532999982645070123e-03 -1.940002667162454971e-04 4.860000196954314248e-04 7.099988932525120656e-05 1.473000005501595841e-03 1.319999981367452340e-04 1.487100100567691381e-02 -1.435599888979210634e-02 -1.450600006774590070e-02 -1.551499910736733011e-02 -1.282700118742364712e-02 -1.403599990154685319e-02 -6.999999940945765987e-04 -1.010000532548274027e-04 -3.139999960352146203e-04 1.200005393500144924e-05 -7.299999993231753729e-04 -2.309999993370584329e-04 1.417000058182155348e-03 -8.189998935121576510e-04 -6.810000070035553610e-04 2.500035690627095029e-05 -4.909000000708307714e-03 -2.601999995234511795e-03 -1.164999943898493116e-03 -7.920000887964751164e-04 -6.879999927782582672e-04 -1.319999926674154380e-03 -8.810000986202998078e-04 1.213000008166219539e-03 6.740001849640913636e-04 -2.388999948250071070e-03 7.759999986659333509e-04 -4.700002400782828148e-05 3.069999963025375604e-04 -1.430000000472218900e-04 -5.709999076159086306e-04 -1.264000043766219748e-03 -5.819999955855826527e-04 -9.689998296820575511e-04 -8.090000535369223315e-04 1.977100000615683237e-02 -3.776008029193937601e-03 1.075509997334054835e-01 1.900699991341281078e-02 -2.374999819784458233e-03 -9.360001598201235897e-04 1.982400001404460710e-02 -3.779000095003373898e-03 2.752999734679214498e-03 2.050900001810962783e-02 1.526000024070602078e-03 1.118000135068668559e-03 1.967899999045995621e-02 -4.299994887853459931e-04 -5.076000009481900291e-03 2.306500000744383244e-02 5.760004508809014228e-04 -4.329999934106066976e-03 2.235600000114569899e-02 -1.355999918657841514e-03 4.129999178174637345e-04 2.039500000707238775e-02 -1.302999872798883078e-03 -1.900000781281825906e-04 2.044100000738215822e-02 -5.049999209302942710e-04 4.039999816444138597e-04 1.986000000238398108e-02 -1.295999675731724201e-03 -2.808000077767573363e-03 2.027200000995857745e-02 -2.559999169423229871e-04 3.520000004863368731e-04 1.987000000106147607e-02 -3.585800061234678537e-02 1.079599732499465260e-02 3.698600018714710835e-02 2.994000395198734982e-03 -3.919999755697085170e-03 1.788599998738914926e-02 -8.569998723834944352e-04 -2.260000448146180991e-04 2.002300000495626023e-02 -3.303699882320256659e-02 -1.554900249844794538e-02 1.490001978909958431e-04 -3.792499898357124671e-02 -1.577700290026950655e-02 -3.202799977490020794e-02 5.080000009550983582e-03 -1.070999628727750631e-03 -1.294400002697107012e-02 -2.340000131426596668e-03 2.619998028279056190e-04 -2.021999998734524268e-02 -3.157200118037880449e-02 1.558299761186983379e-02 -3.319998412926148681e-04 -2.087000079156862368e-03 -3.430001768589627394e-04 -1.903999998813744876e-02 -1.295999157917466366e-03 -1.365400013250299936e-02 -3.452499997920760455e-02 1.315999922390499472e-03 -3.619999194692184838e-04 -1.902000000690253628e-02 -1.301000368338629419e-03 3.390999881359788113e-03 -2.026799999620585921e-02 1.922000012347828586e-03 -1.597999874274562155e-03 -1.965800000901295544e-02 -8.010002125173143559e-04 1.287999918590580078e-03 -2.085299999686514999e-02 9.749998459902643267e-04 5.660000536161256335e-04 -2.014600000594722259e-02 -1.778000048253088007e-03 -8.500001548356977098e-04 -2.038799998933665120e-02 -3.741000510095428971e-03 5.101999694586468494e-03 -2.250599998444649183e-02 -5.770001597286309684e-04 6.729999366674825883e-04 -1.971599999748728863e-02 -3.776999972238329409e-03 -1.821000305554104290e-03 -1.992099997733255343e-02 -2.797000149797909761e-03 5.459997688272447353e-04 -1.965699998510635205e-02
