-1.412881090039999890e+03
-1.412881091510000033e+03
-1.412881094309999980e+03
-1.412881098670000029e+03
-1.412881104640000103e+03
