-1.412881074260000105e+03
-1.412881075770000052e+03
-1.412881078540000090e+03
-1.412881082919999926e+03
-1.412881088910000017e+03
