8.686000000000000387e-01 3.680100000000000038e-01 4.680500000000000327e+00 2.688029999999999919e+00 3.099569999999999936e+00 4.680500000000000327e+00 7.818000000000000504e-01 3.813019999999999854e+00 2.224470000000000169e+00 2.047140000000000182e+00 1.081450000000000022e+00 2.224509999999999987e+00 3.953359999999999985e+00 3.680100000000000038e-01 4.680500000000000327e+00 5.772759999999999891e+00 3.099580000000000002e+00 4.680509999999999948e+00 3.866530000000000022e+00 3.813019999999999854e+00 2.224479999999999791e+00 5.131870000000000154e+00 1.081460000000000088e+00 2.224520000000000053e+00 7.038079999999999892e+00 3.680100000000000038e-01 4.680509999999999948e+00 8.857519999999999172e+00 3.099569999999999936e+00 4.680500000000000327e+00 6.951270000000000060e+00 3.813019999999999854e+00 2.224479999999999791e+00 8.216599999999999682e+00 1.081439999999999957e+00 2.224509999999999987e+00 1.422719999999999985e+00 5.831170000000000186e+00 4.680500000000000327e+00 3.242140000000000022e+00 8.562739999999999796e+00 4.680500000000000327e+00 1.335909999999999931e+00 9.276170000000000471e+00 2.224470000000000169e+00 2.601240000000000219e+00 6.544599999999999973e+00 2.224509999999999987e+00 4.507450000000000401e+00 5.831170000000000186e+00 4.680489999999999817e+00 6.326889999999999681e+00 8.562739999999999796e+00 4.680489999999999817e+00 4.420650000000000190e+00 9.276180000000000092e+00 2.224479999999999791e+00 5.685970000000000191e+00 6.544599999999999973e+00 2.224520000000000053e+00 7.592190000000000438e+00 5.831159999999999677e+00 4.680509999999999948e+00 9.411619999999999209e+00 8.562730000000000175e+00 4.680489999999999817e+00 7.505379999999999718e+00 9.276180000000000092e+00 2.224470000000000169e+00 8.770709999999999340e+00 6.544599999999999973e+00 2.224499999999999922e+00 1.976820000000000022e+00 1.129432000000000080e+01 4.680509999999999948e+00 3.796240000000000059e+00 1.402589000000000041e+01 4.680500000000000327e+00 1.890009999999999968e+00 1.473933000000000071e+01 2.224470000000000169e+00 3.155349999999999877e+00 1.200775999999999932e+01 2.224509999999999987e+00 5.061569999999999681e+00 1.129432000000000080e+01 4.680500000000000327e+00 6.880989999999999718e+00 1.402590000000000003e+01 4.680500000000000327e+00 4.974759999999999849e+00 1.473933000000000071e+01 2.224470000000000169e+00 6.240090000000000359e+00 1.200777000000000072e+01 2.224520000000000053e+00 8.146290000000000475e+00 1.129433000000000042e+01 4.680509999999999948e+00 9.965719999999999246e+00 1.402589000000000041e+01 4.680509999999999948e+00 8.059490000000000265e+00 1.473933000000000071e+01 2.224460000000000104e+00 9.324820000000000775e+00 1.200777000000000072e+01 2.224499999999999922e+00 2.067610000000000170e+00 4.354129999999999612e+00 9.156670000000000087e+00 3.332930000000000170e+00 1.622570000000000068e+00 9.156700000000000728e+00 5.152359999999999829e+00 4.354149999999999743e+00 9.156660000000000466e+00 6.417679999999999829e+00 1.622579999999999911e+00 9.156700000000000728e+00 8.237080000000000624e+00 4.354140000000000121e+00 9.156660000000000466e+00 9.502420000000000755e+00 1.622570000000000068e+00 9.156689999999999330e+00 2.621719999999999828e+00 9.817299999999999471e+00 9.156660000000000466e+00 3.887059999999999960e+00 7.085740000000000371e+00 9.156710000000000349e+00 5.706450000000000244e+00 9.817289999999999850e+00 9.156660000000000466e+00 6.971790000000000376e+00 7.085740000000000371e+00 9.156710000000000349e+00 8.791190000000000282e+00 9.817299999999999471e+00 9.156670000000000087e+00 1.005653000000000041e+01 7.085729999999999862e+00 9.156700000000000728e+00 3.175829999999999931e+00 1.528045000000000009e+01 9.156670000000000087e+00 4.441150000000000375e+00 1.254889000000000010e+01 9.156700000000000728e+00 6.260570000000000412e+00 1.528045999999999971e+01 9.156670000000000087e+00 7.525890000000000413e+00 1.254889000000000010e+01 9.156710000000000349e+00 9.345299999999999940e+00 1.528045999999999971e+01 9.156660000000000466e+00 1.061063000000000045e+01 1.254889000000000010e+01 9.156710000000000349e+00 2.154409999999999936e+00 9.091299999999999937e-01 1.161267999999999923e+01 3.973850000000000104e+00 3.640690000000000204e+00 1.161270000000000024e+01 5.239160000000000039e+00 9.091299999999999937e-01 1.161269000000000062e+01 7.058580000000000076e+00 3.640699999999999825e+00 1.161267999999999923e+01 8.323890000000000455e+00 9.091299999999999937e-01 1.161270000000000024e+01 1.014331999999999923e+01 3.640699999999999825e+00 1.161267999999999923e+01 2.708530000000000104e+00 6.372279999999999944e+00 1.161267999999999923e+01 4.527949999999999697e+00 9.103859999999999175e+00 1.161270000000000024e+01 5.793260000000000076e+00 6.372289999999999566e+00 1.161269000000000062e+01 7.612689999999999735e+00 9.103849999999999554e+00 1.161269000000000062e+01 8.878000000000000114e+00 6.372279999999999944e+00 1.161269000000000062e+01 1.069741999999999926e+01 9.103849999999999554e+00 1.161267999999999923e+01 3.262640000000000207e+00 1.183544999999999980e+01 1.161267999999999923e+01 5.082060000000000244e+00 1.456700999999999979e+01 1.161269000000000062e+01 6.347369999999999735e+00 1.183544000000000018e+01 1.161269000000000062e+01 8.166790000000000660e+00 1.456700999999999979e+01 1.161270000000000024e+01 9.432109999999999772e+00 1.183544000000000018e+01 1.161270000000000024e+01 1.125154000000000032e+01 1.456701999999999941e+01 1.161270000000000024e+01 3.440230000000000121e+00 1.450250000000000039e+00 1.854486999999999952e+01 5.259660000000000224e+00 4.181820000000000093e+00 1.854488999999999876e+01 3.353419999999999845e+00 4.895249999999999879e+00 1.608886000000000038e+01 4.618739999999999846e+00 2.163689999999999891e+00 1.608887999999999963e+01 6.524969999999999715e+00 1.450260000000000105e+00 1.854487999999999914e+01 8.344400000000000261e+00 4.181820000000000093e+00 1.854487999999999914e+01 6.438170000000000393e+00 4.895249999999999879e+00 1.608885000000000076e+01 7.703490000000000393e+00 2.163699999999999957e+00 1.608888999999999925e+01 9.609700000000000131e+00 1.450260000000000105e+00 1.854487999999999914e+01 1.142911999999999928e+01 4.181820000000000093e+00 1.854486999999999952e+01 9.522890000000000299e+00 4.895270000000000010e+00 1.608885000000000076e+01 1.078823000000000043e+01 2.163699999999999957e+00 1.608888999999999925e+01 3.994330000000000158e+00 6.913420000000000343e+00 1.854488999999999876e+01 5.813769999999999882e+00 9.644970000000000709e+00 1.854487999999999914e+01 3.907519999999999882e+00 1.035842000000000063e+01 1.608885000000000076e+01 5.172860000000000014e+00 7.626859999999999751e+00 1.608888999999999925e+01 7.079069999999999752e+00 6.913400000000000212e+00 1.854487999999999914e+01 8.898490000000000677e+00 9.644970000000000709e+00 1.854487999999999914e+01 6.992270000000000429e+00 1.035842000000000063e+01 1.608884000000000114e+01 8.257590000000000430e+00 7.626859999999999751e+00 1.608889999999999887e+01 1.016380999999999979e+01 6.913409999999999833e+00 1.854487999999999914e+01 1.198323000000000071e+01 9.644970000000000709e+00 1.854487999999999914e+01 1.007699999999999996e+01 1.035840999999999923e+01 1.608885000000000076e+01 1.134233000000000047e+01 7.626850000000000129e+00 1.608888999999999925e+01 4.548449999999999882e+00 1.237656999999999918e+01 1.854487999999999914e+01 6.367880000000000429e+00 1.510812999999999917e+01 1.854487999999999914e+01 4.461640000000000050e+00 1.582158000000000087e+01 1.608885000000000076e+01 5.726969999999999672e+00 1.309002000000000088e+01 1.608889999999999887e+01 7.633189999999999920e+00 1.237656999999999918e+01 1.854487999999999914e+01 9.452609999999999957e+00 1.510812999999999917e+01 1.854487999999999914e+01 7.546380000000000088e+00 1.582158000000000087e+01 1.608886000000000038e+01 8.811709999999999710e+00 1.309002000000000088e+01 1.608889999999999887e+01 1.071791999999999945e+01 1.237655999999999956e+01 1.854487999999999914e+01 1.253734999999999999e+01 1.510814000000000057e+01 1.854487999999999914e+01 1.063110999999999962e+01 1.582159000000000049e+01 1.608886000000000038e+01 1.189644999999999975e+01 1.309002000000000088e+01 1.608888999999999925e+01 8.251600000000000046e-01 2.090520000000000156e+00 3.452479999999999993e+00 2.046370000000000022e+00 2.830999999999999961e+00 1.211319999999999952e+00 2.269599999999999951e-01 9.939000000000000612e-02 1.211310000000000109e+00 2.644610000000000127e+00 4.822099999999999831e+00 3.452550000000000008e+00 3.909909999999999997e+00 2.090520000000000156e+00 3.452479999999999993e+00 5.131120000000000125e+00 2.830999999999999961e+00 1.211330000000000018e+00 3.311710000000000154e+00 9.940000000000000224e-02 1.211319999999999952e+00 5.729350000000000165e+00 4.822110000000000340e+00 3.452560000000000073e+00 6.994640000000000413e+00 2.090520000000000156e+00 3.452479999999999993e+00 8.215840000000000032e+00 2.831010000000000026e+00 1.211319999999999952e+00 6.396440000000000126e+00 9.937999999999999612e-02 1.211319999999999952e+00 8.814099999999999824e+00 4.822110000000000340e+00 3.452550000000000008e+00 1.379280000000000062e+00 7.553670000000000329e+00 3.452469999999999928e+00 2.600490000000000190e+00 8.294159999999999755e+00 1.211319999999999952e+00 7.810799999999999965e-01 5.562549999999999883e+00 1.211319999999999952e+00 3.198719999999999786e+00 1.028525999999999918e+01 3.452550000000000008e+00 4.464010000000000034e+00 7.553670000000000329e+00 3.452479999999999993e+00 5.685220000000000162e+00 8.294159999999999755e+00 1.211319999999999952e+00 3.865800000000000125e+00 5.562560000000000393e+00 1.211319999999999952e+00 6.283459999999999823e+00 1.028525999999999918e+01 3.452550000000000008e+00 7.548750000000000071e+00 7.553679999999999950e+00 3.452469999999999928e+00 8.769949999999999690e+00 8.294159999999999755e+00 1.211330000000000018e+00 6.950540000000000163e+00 5.562540000000000262e+00 1.211319999999999952e+00 9.368190000000000239e+00 1.028525999999999918e+01 3.452550000000000008e+00 1.933380000000000098e+00 1.301684000000000019e+01 3.452469999999999928e+00 3.154599999999999849e+00 1.375731999999999999e+01 1.211330000000000018e+00 1.335190000000000099e+00 1.102571999999999974e+01 1.211310000000000109e+00 3.752829999999999888e+00 1.574843000000000082e+01 3.452550000000000008e+00 5.018110000000000070e+00 1.301683000000000057e+01 3.452469999999999928e+00 6.239320000000000199e+00 1.375731999999999999e+01 1.211330000000000018e+00 4.419929999999999914e+00 1.102570000000000050e+01 1.211319999999999952e+00 6.837579999999999991e+00 1.574843000000000082e+01 3.452560000000000073e+00 8.102859999999999729e+00 1.301683000000000057e+01 3.452469999999999928e+00 9.324059999999999349e+00 1.375732999999999961e+01 1.211330000000000018e+00 7.504660000000000331e+00 1.102571000000000012e+01 1.211319999999999952e+00 9.922319999999999141e+00 1.574841999999999942e+01 3.452560000000000073e+00 1.067769999999999975e+01 4.081579999999999764e+00 5.693819999999999659e+00 2.688839999999999897e+00 1.350030000000000063e+00 5.693880000000000052e+00 4.508239999999999803e+00 4.081590000000000273e+00 5.693819999999999659e+00 5.773570000000000313e+00 1.350030000000000063e+00 5.693880000000000052e+00 7.592979999999999841e+00 4.081579999999999764e+00 5.693810000000000038e+00 8.858299999999999841e+00 1.350030000000000063e+00 5.693870000000000431e+00 1.123183000000000042e+01 9.544750000000000512e+00 5.693819999999999659e+00 3.242939999999999934e+00 6.813180000000000014e+00 5.693880000000000052e+00 5.062350000000000350e+00 9.544760000000000133e+00 5.693810000000000038e+00 6.327670000000000350e+00 6.813200000000000145e+00 5.693880000000000052e+00 8.147080000000000766e+00 9.544739999999999114e+00 5.693819999999999659e+00 9.412409999999999499e+00 6.813200000000000145e+00 5.693889999999999674e+00 1.178594000000000008e+01 1.500791000000000075e+01 5.693810000000000038e+00 3.797039999999999971e+00 1.227635000000000076e+01 5.693880000000000052e+00 5.616460000000000008e+00 1.500789999999999935e+01 5.693810000000000038e+00 6.881780000000000008e+00 1.227633999999999936e+01 5.693870000000000431e+00 8.701200000000000045e+00 1.500789999999999935e+01 5.693819999999999659e+00 9.966509999999999536e+00 1.227636000000000038e+01 5.693870000000000431e+00 2.110980000000000079e+00 2.631650000000000045e+00 1.038466999999999985e+01 3.332190000000000207e+00 3.372119999999999784e+00 8.143530000000000157e+00 1.512769999999999948e+00 6.405100000000000238e-01 8.143509999999999138e+00 3.930419999999999803e+00 5.363229999999999720e+00 1.038475000000000037e+01 5.195710000000000051e+00 2.631629999999999914e+00 1.038466999999999985e+01 6.416929999999999801e+00 3.372129999999999850e+00 8.143530000000000157e+00 4.597500000000000142e+00 6.405100000000000238e-01 8.143509999999999138e+00 7.015170000000000350e+00 5.363229999999999720e+00 1.038475000000000037e+01 8.280440000000000467e+00 2.631650000000000045e+00 1.038466999999999985e+01 9.501659999999999329e+00 3.372129999999999850e+00 8.143509999999999138e+00 7.682249999999999801e+00 6.405100000000000238e-01 8.143499999999999517e+00 1.009989999999999988e+01 5.363229999999999720e+00 1.038475999999999999e+01 2.665090000000000181e+00 8.094799999999999329e+00 1.038466999999999985e+01 3.886299999999999866e+00 8.835300000000000153e+00 8.143509999999999138e+00 2.066889999999999894e+00 6.103679999999999772e+00 8.143509999999999138e+00 4.484539999999999971e+00 1.082638999999999996e+01 1.038474000000000075e+01 5.749830000000000219e+00 8.094799999999999329e+00 1.038466000000000022e+01 6.971040000000000347e+00 8.835290000000000532e+00 8.143509999999999138e+00 5.151609999999999800e+00 6.103679999999999772e+00 8.143509999999999138e+00 7.569270000000000387e+00 1.082639999999999958e+01 1.038475000000000037e+01 8.834550000000000125e+00 8.094810000000000727e+00 1.038466999999999985e+01 1.005577000000000076e+01 8.835290000000000532e+00 8.143520000000000536e+00 8.236359999999999459e+00 6.103659999999999641e+00 8.143499999999999517e+00 1.065400999999999954e+01 1.082638999999999996e+01 1.038475000000000037e+01 3.219190000000000218e+00 1.355795999999999957e+01 1.038466999999999985e+01 4.440400000000000347e+00 1.429845000000000077e+01 8.143520000000000536e+00 2.620989999999999931e+00 1.156681999999999988e+01 8.143499999999999517e+00 5.038640000000000008e+00 1.628953999999999880e+01 1.038475000000000037e+01 6.303919999999999746e+00 1.355795999999999957e+01 1.038466000000000022e+01 7.525129999999999875e+00 1.429843999999999937e+01 8.143520000000000536e+00 5.705729999999999968e+00 1.156683999999999912e+01 8.143499999999999517e+00 8.123379999999999157e+00 1.628953999999999880e+01 1.038475000000000037e+01 9.388669999999999405e+00 1.355795999999999957e+01 1.038466999999999985e+01 1.060988000000000042e+01 1.429845000000000077e+01 8.143509999999999138e+00 8.790459999999999496e+00 1.156683999999999912e+01 8.143509999999999138e+00 1.120810999999999957e+01 1.628954999999999842e+01 1.038475000000000037e+01 1.196352000000000082e+01 4.622700000000000031e+00 1.262598999999999982e+01 3.974650000000000016e+00 1.891150000000000109e+00 1.262607000000000035e+01 5.794050000000000367e+00 4.622720000000000162e+00 1.262601000000000084e+01 7.059370000000000367e+00 1.891159999999999952e+00 1.262607999999999997e+01 8.878790000000000404e+00 4.622720000000000162e+00 1.262601000000000084e+01 1.014411999999999914e+01 1.891159999999999952e+00 1.262606000000000073e+01 1.251763000000000048e+01 1.008587999999999951e+01 1.262599999999999945e+01 4.528749999999999609e+00 7.354320000000000412e+00 1.262607000000000035e+01 6.348160000000000025e+00 1.008586999999999989e+01 1.262601000000000084e+01 7.613480000000000025e+00 7.354320000000000412e+00 1.262607999999999997e+01 9.432900000000000063e+00 1.008587999999999951e+01 1.262599999999999945e+01 1.069820999999999955e+01 7.354320000000000412e+00 1.262606000000000073e+01 1.307174000000000014e+01 1.554902000000000051e+01 1.262601000000000084e+01 5.082860000000000156e+00 1.281747000000000014e+01 1.262607999999999997e+01 6.902280000000000193e+00 1.554902000000000051e+01 1.262601000000000084e+01 8.167590000000000572e+00 1.281746000000000052e+01 1.262607000000000035e+01 9.987009999999999721e+00 1.554902000000000051e+01 1.262601000000000084e+01 1.125233000000000061e+01 1.281747000000000014e+01 1.262607000000000035e+01 4.618000000000000327e+00 3.913240000000000052e+00 1.507571000000000083e+01 2.798579999999999846e+00 1.181640000000000024e+00 1.507569999999999943e+01 7.702729999999999855e+00 3.913250000000000117e+00 1.507569999999999943e+01 5.883309999999999818e+00 1.181629999999999958e+00 1.507568999999999981e+01 1.078747000000000078e+01 3.913260000000000183e+00 1.507571000000000083e+01 8.968059999999999476e+00 1.181629999999999958e+00 1.507568999999999981e+01 5.172109999999999985e+00 9.376409999999999911e+00 1.507571000000000083e+01 3.352689999999999948e+00 6.644790000000000418e+00 1.507568999999999981e+01 8.256840000000000401e+00 9.376419999999999533e+00 1.507571000000000083e+01 6.437439999999999607e+00 6.644790000000000418e+00 1.507568000000000019e+01 1.134157000000000082e+01 9.376409999999999911e+00 1.507571000000000083e+01 9.522159999999999513e+00 6.644790000000000418e+00 1.507569999999999943e+01 5.726210000000000022e+00 1.483957999999999977e+01 1.507569999999999943e+01 3.906800000000000050e+00 1.210795000000000066e+01 1.507569999999999943e+01 8.810940000000000438e+00 1.483956000000000053e+01 1.507572000000000045e+01 6.991530000000000022e+00 1.210793999999999926e+01 1.507569999999999943e+01 1.189568000000000048e+01 1.483957000000000015e+01 1.507569999999999943e+01 1.007625999999999955e+01 1.210795000000000066e+01 1.507568999999999981e+01 3.396790000000000198e+00 3.172759999999999803e+00 1.731684999999999874e+01 1.324934000000000012e+01 5.163840000000000430e+00 1.955819999999999936e+01 5.216249999999999609e+00 5.904340000000000366e+00 1.731693999999999889e+01 5.260449999999999626e+00 2.432279999999999998e+00 1.955826000000000064e+01 6.481510000000000105e+00 3.172769999999999868e+00 1.731685999999999837e+01 7.079850000000000421e+00 5.163850000000000051e+00 1.955818999999999974e+01 8.300969999999999516e+00 5.904359999999999609e+00 1.731693999999999889e+01 8.345190000000000552e+00 2.432279999999999998e+00 1.955826000000000064e+01 9.566259999999999764e+00 3.172769999999999868e+00 1.731684999999999874e+01 1.016460000000000008e+01 5.163829999999999920e+00 1.955819999999999936e+01 1.138569999999999993e+01 5.904349999999999987e+00 1.731692999999999927e+01 1.142993000000000059e+01 2.432290000000000063e+00 1.955826000000000064e+01 3.950880000000000170e+00 8.635920000000000485e+00 1.731684999999999874e+01 1.380344000000000015e+01 1.062700000000000067e+01 1.955818999999999974e+01 5.770349999999999646e+00 1.136749999999999972e+01 1.731693999999999889e+01 5.814560000000000173e+00 7.895439999999999792e+00 1.955826000000000064e+01 7.035630000000000273e+00 8.635930000000000106e+00 1.731684999999999874e+01 7.633960000000000079e+00 1.062698999999999927e+01 1.955819999999999936e+01 8.855069999999999553e+00 1.136750999999999934e+01 1.731692999999999927e+01 8.899309999999999832e+00 7.895430000000000170e+00 1.955825000000000102e+01 1.012036999999999942e+01 8.635930000000000106e+00 1.731685999999999837e+01 1.071870999999999974e+01 1.062698999999999927e+01 1.955818999999999974e+01 1.193980999999999959e+01 1.136750999999999934e+01 1.731693999999999889e+01 1.198403000000000063e+01 7.895430000000000170e+00 1.955827000000000027e+01 4.504999999999999893e+00 1.409906999999999933e+01 1.731684999999999874e+01 1.435755999999999943e+01 1.609016000000000091e+01 1.955818999999999974e+01 6.324460000000000193e+00 1.683067000000000135e+01 1.731693999999999889e+01 6.368669999999999831e+00 1.335858999999999952e+01 1.955826000000000064e+01 7.589750000000000441e+00 1.409908000000000072e+01 1.731685999999999837e+01 8.188079999999999359e+00 1.609016000000000091e+01 1.955818999999999974e+01 9.409200000000000230e+00 1.683068000000000097e+01 1.731693999999999889e+01 9.453409999999999869e+00 1.335859999999999914e+01 1.955826000000000064e+01 1.067448000000000086e+01 1.409908000000000072e+01 1.731685999999999837e+01 1.127280000000000015e+01 1.609016000000000091e+01 1.955818999999999974e+01 1.249391999999999925e+01 1.683067000000000135e+01 1.731694999999999851e+01 1.253813000000000066e+01 1.335859999999999914e+01 1.955826000000000064e+01