-2.742693753399999878e+03
-2.742671361109999907e+03
-2.742591498450000017e+03
-2.742456019929999911e+03
-2.742267504769999960e+03
-2.742029510050000226e+03
-2.741746235510000133e+03
-2.741422688459999790e+03
-2.741064460179999969e+03
-2.740677706049999870e+03
