3.896270000000000011e-01 -2.302790000000000115e-01 1.187119999999999981e-01 3.904329999999999745e-01 -2.311280000000000001e-01 1.182480000000000059e-01 -3.903050000000000130e-01 2.302410000000000012e-01 -1.174329999999999957e-01 -3.903579999999999828e-01 2.312400000000000011e-01 -1.173160000000000036e-01 3.888110000000000177e-01 -2.300860000000000127e-01 1.190790000000000043e-01 3.895429999999999726e-01 -2.313189999999999968e-01 1.182610000000000050e-01 -3.905649999999999955e-01 2.302750000000000075e-01 -1.160080000000000000e-01 -3.904650000000000065e-01 2.312670000000000003e-01 -1.170699999999999935e-01 3.895930000000000226e-01 -2.310210000000000041e-01 1.181139999999999968e-01 3.890939999999999954e-01 -2.306350000000000067e-01 1.180800000000000044e-01 -3.904920000000000058e-01 2.309620000000000006e-01 -1.167679999999999968e-01 -3.909929999999999795e-01 2.306340000000000057e-01 -1.171129999999999949e-01 3.890580000000000149e-01 -2.305039999999999867e-01 1.188519999999999993e-01 3.902619999999999978e-01 -2.316860000000000031e-01 1.177020000000000011e-01 -3.911890000000000089e-01 2.319430000000000103e-01 -1.163830000000000003e-01 -3.902300000000000213e-01 2.308379999999999876e-01 -1.175510000000000027e-01 3.890350000000000197e-01 -2.310669999999999946e-01 1.185250000000000054e-01 3.897360000000000269e-01 -2.307780000000000109e-01 1.185220000000000024e-01 -3.916729999999999934e-01 2.306469999999999909e-01 -1.163659999999999972e-01 -3.900890000000000191e-01 2.303640000000000132e-01 -1.173290000000000027e-01 3.897849999999999926e-01 -2.303870000000000084e-01 1.187860000000000027e-01 3.893360000000000154e-01 -2.306310000000000027e-01 1.187349999999999933e-01 -3.909969999999999835e-01 2.313820000000000043e-01 -1.166439999999999977e-01 -3.908809999999999785e-01 2.303010000000000057e-01 -1.170039999999999969e-01 3.889610000000000012e-01 -2.305200000000000027e-01 1.185520000000000046e-01 3.904449999999999865e-01 -2.305939999999999934e-01 1.186350000000000043e-01 -3.909509999999999930e-01 2.309920000000000029e-01 -1.162519999999999942e-01 -3.896259999999999724e-01 2.304519999999999902e-01 -1.177430000000000004e-01 3.884290000000000243e-01 -2.302140000000000020e-01 1.184319999999999956e-01 3.897240000000000149e-01 -2.307430000000000037e-01 1.184439999999999937e-01 -3.916850000000000054e-01 2.311090000000000089e-01 -1.162170000000000009e-01 -3.895600000000000174e-01 2.298389999999999878e-01 -1.185689999999999938e-01 3.901180000000000203e-01 -2.309259999999999924e-01 1.183069999999999955e-01 3.897880000000000233e-01 -2.309809999999999919e-01 1.180110000000000048e-01 -3.914039999999999742e-01 2.314539999999999931e-01 -1.163740000000000052e-01 -3.900830000000000131e-01 2.298840000000000050e-01 -1.168150000000000022e-01 -3.902419999999999778e-01 2.304799999999999904e-01 -1.175380000000000036e-01 -3.900440000000000018e-01 2.307990000000000042e-01 -1.175469999999999987e-01 -3.910449999999999759e-01 2.303600000000000092e-01 -1.157979999999999982e-01 -3.906000000000000028e-01 2.311149999999999871e-01 -1.169810000000000016e-01 -3.903699999999999948e-01 2.309869999999999979e-01 -1.168069999999999942e-01 -3.911339999999999817e-01 2.303949999999999887e-01 -1.167200000000000043e-01 -3.913159999999999972e-01 2.319330000000000003e-01 -1.159700000000000036e-01 -3.902559999999999918e-01 2.308409999999999906e-01 -1.175660000000000038e-01 -3.917169999999999819e-01 2.310929999999999929e-01 -1.160810000000000036e-01 -3.898159999999999958e-01 2.301769999999999927e-01 -1.175309999999999966e-01 -3.908840000000000092e-01 2.316350000000000076e-01 -1.165400000000000047e-01 -3.910339999999999927e-01 2.303669999999999884e-01 -1.169319999999999943e-01 -3.910080000000000222e-01 2.310450000000000004e-01 -1.162310000000000010e-01 -3.897979999999999778e-01 2.309080000000000021e-01 -1.176719999999999988e-01 -3.917349999999999999e-01 2.309180000000000121e-01 -1.161709999999999965e-01 -3.894839999999999969e-01 2.301189999999999902e-01 -1.182600000000000040e-01 -3.909119999999999817e-01 2.312579999999999913e-01 -1.165220000000000006e-01 -3.897579999999999933e-01 2.300590000000000135e-01 -1.168499999999999955e-01 3.893940000000000179e-01 -2.303010000000000057e-01 1.188860000000000056e-01 3.903329999999999855e-01 -2.309930000000000039e-01 1.182430000000000009e-01 3.889569999999999972e-01 -2.304980000000000084e-01 1.190520000000000050e-01 3.892450000000000077e-01 -2.311829999999999996e-01 1.188280000000000031e-01 3.895700000000000274e-01 -2.310619999999999896e-01 1.184140000000000054e-01 3.892479999999999829e-01 -2.309859999999999969e-01 1.183199999999999946e-01 3.889599999999999724e-01 -2.301350000000000062e-01 1.191569999999999990e-01 3.902470000000000105e-01 -2.313320000000000098e-01 1.179919999999999997e-01 3.890930000000000222e-01 -2.307269999999999877e-01 1.186579999999999996e-01 3.896890000000000076e-01 -2.300959999999999950e-01 1.188290000000000041e-01 3.896890000000000076e-01 -2.301429999999999865e-01 1.191099999999999937e-01 3.894329999999999736e-01 -2.302440000000000042e-01 1.189489999999999992e-01 3.887030000000000207e-01 -2.306630000000000069e-01 1.189429999999999932e-01 3.903300000000000103e-01 -2.307039999999999924e-01 1.186310000000000003e-01 3.887499999999999845e-01 -2.304519999999999902e-01 1.185829999999999940e-01 3.899329999999999741e-01 -2.306519999999999959e-01 1.184250000000000025e-01 3.898059999999999858e-01 -2.305139999999999967e-01 1.186249999999999943e-01 3.894340000000000024e-01 -2.310510000000000064e-01 1.182610000000000050e-01 3.890569999999999862e-01 -2.299640000000000017e-01 1.188499999999999973e-01 3.901879999999999793e-01 -2.307319999999999927e-01 1.181630000000000041e-01 -3.902950000000000030e-01 2.306090000000000084e-01 -1.176370000000000055e-01 -3.901749999999999940e-01 2.310029999999999861e-01 -1.176449999999999996e-01 3.889159999999999839e-01 -2.302210000000000090e-01 1.188909999999999967e-01 3.892169999999999797e-01 -2.308290000000000064e-01 1.185839999999999950e-01 -3.911540000000000017e-01 2.308699999999999919e-01 -1.159000000000000030e-01 -3.905150000000000010e-01 2.312089999999999979e-01 -1.172399999999999970e-01 3.895109999999999961e-01 -2.310649999999999926e-01 1.183160000000000045e-01 3.892559999999999909e-01 -2.307309999999999917e-01 1.182580000000000020e-01 -3.906970000000000165e-01 2.311640000000000084e-01 -1.165879999999999972e-01 -3.911370000000000124e-01 2.301159999999999872e-01 -1.170479999999999993e-01 3.894819999999999949e-01 -2.306120000000000114e-01 1.184940000000000021e-01 3.899850000000000261e-01 -2.312559999999999893e-01 1.179589999999999944e-01 -3.913570000000000104e-01 2.317559999999999898e-01 -1.161679999999999935e-01 -3.900100000000000233e-01 2.306779999999999942e-01 -1.178820000000000007e-01 3.888780000000000014e-01 -2.303139999999999910e-01 1.183909999999999962e-01 3.898789999999999756e-01 -2.303030000000000077e-01 1.183980000000000032e-01 -3.917900000000000271e-01 2.307549999999999879e-01 -1.161940000000000056e-01 -3.901479999999999948e-01 2.305659999999999932e-01 -1.175479999999999997e-01 3.900899999999999923e-01 -2.306429999999999869e-01 1.187109999999999971e-01 3.895080000000000209e-01 -2.305319999999999869e-01 1.184759999999999980e-01 -3.911950000000000149e-01 2.317899999999999960e-01 -1.166599999999999998e-01 -3.908340000000000147e-01 2.304339999999999999e-01 -1.171650000000000053e-01 3.886140000000000150e-01 -2.306910000000000072e-01 1.187269999999999992e-01 3.903880000000000128e-01 -2.306840000000000002e-01 1.184749999999999970e-01 -3.911169999999999924e-01 2.309279999999999944e-01 -1.164649999999999991e-01 -3.895669999999999966e-01 2.303330000000000100e-01 -1.179420000000000052e-01 3.888670000000000182e-01 -2.307099999999999984e-01 1.183850000000000041e-01 3.897169999999999801e-01 -2.306479999999999919e-01 1.184769999999999990e-01 -3.916819999999999746e-01 2.307549999999999879e-01 -1.162689999999999974e-01 -3.895469999999999766e-01 2.296090000000000075e-01 -1.183609999999999940e-01 3.896370000000000111e-01 -2.305510000000000059e-01 1.185100000000000042e-01 3.891709999999999892e-01 -2.309170000000000111e-01 1.182590000000000030e-01 -3.907649999999999735e-01 2.311130000000000129e-01 -1.170309999999999961e-01 -3.903110000000000190e-01 2.298910000000000120e-01 -1.167289999999999994e-01 6.689999999999999983e-04 -1.016999999999999892e-03 2.759999999999999867e-04 2.487309999999999910e+00 3.357899999999999774e-02 -1.793876000000000026e+00 2.486318999999999946e+00 3.459399999999999975e-02 -1.793048999999999893e+00 5.039999999999999992e-04 -8.890000000000000333e-04 -1.540000000000000028e-04 -5.760000000000000146e-04 -6.589999999999999721e-04 6.419999999999999925e-04 2.486737999999999893e+00 3.355699999999999655e-02 -1.793733999999999940e+00 2.486098999999999837e+00 3.424399999999999666e-02 -1.793077000000000032e+00 8.869999999999999846e-04 -6.400000000000000524e-04 1.630000000000000047e-04 3.139999999999999888e-04 -1.178000000000000011e-03 5.490000000000000088e-04 2.486617999999999995e+00 3.315799999999999997e-02 -1.793681000000000081e+00 2.486288000000000054e+00 3.445800000000000252e-02 -1.792990000000000084e+00 3.260000000000000094e-04 -1.039999999999999909e-03 2.519999999999999996e-04 -1.150000000000000035e-04 -1.910000000000000077e-04 1.902000000000000045e-03 2.486829000000000178e+00 3.514799999999999869e-02 -1.793989000000000056e+00 2.486047999999999814e+00 3.516600000000000281e-02 -1.793225999999999987e+00 7.460000000000000268e-04 2.269999999999999882e-04 -1.183999999999999940e-03 -4.009999999999999893e-04 1.740000000000000010e-04 9.640000000000000131e-04 2.487006000000000050e+00 3.535399999999999654e-02 -1.793932000000000082e+00 2.485695000000000210e+00 3.452800000000000313e-02 -1.793328000000000033e+00 9.619999999999999645e-04 2.290000000000000098e-04 -1.861000000000000024e-03 5.399999999999999798e-05 -5.090000000000000123e-04 1.660000000000000017e-03 2.486829000000000178e+00 3.504499999999999976e-02 -1.794429999999999970e+00 2.486505999999999883e+00 3.475999999999999923e-02 -1.793336999999999959e+00 1.879999999999999890e-04 3.220000000000000206e-04 -1.255999999999999955e-03 3.449999999999999833e-04 -8.700000000000000051e-04 9.359999999999999831e-04 2.487292000000000058e+00 3.427700000000000191e-02 -1.794384999999999897e+00 2.486381999999999870e+00 3.519699999999999912e-02 -1.793371999999999966e+00 1.237999999999999951e-03 -4.440000000000000045e-04 -1.845000000000000069e-03 -2.280000000000000126e-04 -1.327999999999999970e-03 4.189999999999999931e-04 2.486982999999999944e+00 3.439099999999999796e-02 -1.794364999999999988e+00 2.486108000000000207e+00 3.552799999999999708e-02 -1.793577999999999895e+00 1.118000000000000070e-03 -4.440000000000000045e-04 -2.314000000000000085e-03 -4.539999999999999765e-04 -1.038000000000000077e-03 -1.640000000000000019e-04 2.486517999999999784e+00 3.411100000000000243e-02 -1.794532000000000016e+00 2.486457999999999835e+00 3.559500000000000164e-02 -1.793701999999999908e+00 5.410000000000000312e-04 7.600000000000000418e-05 -2.335999999999999969e-03 -2.486234000000000055e+00 -3.339899999999999813e-02 1.792748999999999926e+00 -2.485821000000000058e+00 -3.398299999999999932e-02 1.790345999999999993e+00 -2.486311000000000160e+00 -3.357299999999999868e-02 1.793203000000000102e+00 -2.485707000000000111e+00 -3.359100000000000280e-02 1.790005000000000068e+00 -2.486378999999999895e+00 -3.360099999999999892e-02 1.792969000000000035e+00 -2.485545999999999811e+00 -3.393600000000000089e-02 1.790901999999999994e+00 -2.486588999999999938e+00 -3.397399999999999726e-02 1.792199000000000098e+00 -2.485825999999999869e+00 -3.445399999999999852e-02 1.791538000000000075e+00 -2.486174999999999802e+00 -3.454399999999999832e-02 1.792853000000000030e+00 -2.485078000000000120e+00 -3.418000000000000205e-02 1.791403999999999996e+00 -2.485935000000000006e+00 -3.441099999999999715e-02 1.792453999999999992e+00 -2.485777000000000125e+00 -3.456300000000000344e-02 1.791441999999999979e+00 -2.485669999999999824e+00 -3.438200000000000284e-02 1.791199999999999903e+00 -2.485729000000000077e+00 -3.454800000000000232e-02 1.790046000000000026e+00 -2.486585999999999963e+00 -3.488900000000000334e-02 1.791452999999999962e+00 -2.486044000000000143e+00 -3.405799999999999800e-02 1.790154000000000023e+00 -2.486206000000000138e+00 -3.448199999999999876e-02 1.791109000000000062e+00 -2.485228999999999910e+00 -3.479700000000000154e-02 1.790262999999999938e+00 1.939999999999999993e-04 -5.140000000000000254e-04 1.157999999999999958e-03 2.487263000000000002e+00 3.490800000000000153e-02 -1.794059999999999988e+00 2.486539000000000055e+00 3.570099999999999663e-02 -1.792516999999999916e+00 8.379999999999999862e-04 -1.453999999999999997e-03 -8.829999999999999958e-04 -1.479999999999999925e-04 -1.820000000000000057e-04 9.749999999999999552e-04 2.486895000000000078e+00 3.461800000000000294e-02 -1.793841000000000019e+00 2.485930000000000195e+00 3.565499999999999919e-02 -1.792488999999999999e+00 1.062999999999999926e-03 -8.019999999999999785e-04 -4.539999999999999765e-04 5.509999999999999490e-04 -7.500000000000000156e-04 1.458000000000000095e-03 2.486785999999999941e+00 3.468000000000000249e-02 -1.793846000000000052e+00 2.486079000000000150e+00 3.568400000000000044e-02 -1.792429999999999968e+00 6.369999999999999794e-04 -1.353999999999999952e-03 -8.450000000000000479e-04 3.069999999999999812e-04 -1.466000000000000072e-03 8.720000000000000537e-04 2.486918000000000184e+00 3.369400000000000173e-02 -1.794925000000000104e+00 2.486121999999999943e+00 3.482600000000000279e-02 -1.793365000000000098e+00 1.002000000000000069e-03 -9.020000000000000240e-04 -1.087000000000000076e-03 -3.860000000000000041e-04 -9.430000000000000448e-04 5.540000000000000219e-04 2.487156000000000144e+00 3.402499999999999969e-02 -1.794845000000000024e+00 2.485942000000000096e+00 3.437099999999999878e-02 -1.793577999999999895e+00 1.234000000000000071e-03 -8.559999999999999901e-04 -1.613000000000000067e-03 6.549999999999999833e-04 -1.737999999999999962e-03 2.200000000000000078e-04 2.486543999999999865e+00 3.400299999999999850e-02 -1.795136999999999983e+00 2.486247999999999791e+00 3.479499999999999954e-02 -1.793388999999999900e+00 5.749999999999999903e-04 -4.099999999999999912e-04 -1.561000000000000104e-03 5.379999999999999583e-04 -5.150000000000000498e-04 1.195000000000000099e-03 2.487204999999999888e+00 3.397700000000000026e-02 -1.794419999999999904e+00 2.486149000000000164e+00 3.457099999999999757e-02 -1.794075000000000086e+00 1.074000000000000085e-03 4.029999999999999837e-04 -7.510000000000000399e-04 -4.730000000000000046e-04 -8.760000000000000425e-04 1.673000000000000008e-03 2.486899999999999888e+00 3.434100000000000347e-02 -1.794621000000000022e+00 2.485859000000000041e+00 3.407600000000000212e-02 -1.794381000000000004e+00 1.247999999999999977e-03 5.820000000000000520e-04 -4.840000000000000010e-04 -1.019999999999999992e-04 -5.869999999999999567e-04 1.248999999999999893e-03 2.486488000000000032e+00 3.398199999999999832e-02 -1.794262000000000024e+00 2.486822999999999784e+00 3.421899999999999942e-02 -1.794291000000000080e+00 6.939999999999999555e-04 6.530000000000000431e-04 -8.739999999999999939e-04 -2.486343000000000192e+00 -3.422300000000000342e-02 1.793290000000000051e+00 -2.485562999999999967e+00 -3.375000000000000222e-02 1.792356999999999978e+00 -2.485663999999999874e+00 -3.466400000000000037e-02 1.793029999999999902e+00 -2.485236000000000001e+00 -3.344199999999999950e-02 1.791868000000000016e+00 -2.486207999999999974e+00 -3.484500000000000097e-02 1.793249000000000093e+00 -2.485536999999999885e+00 -3.369599999999999679e-02 1.792615000000000069e+00 -2.485956999999999972e+00 -3.433499999999999747e-02 1.792551000000000005e+00 -2.485364000000000129e+00 -3.562699999999999895e-02 1.791131999999999946e+00 -2.485892000000000213e+00 -3.450600000000000195e-02 1.792713999999999919e+00 -2.484955999999999943e+00 -3.540499999999999897e-02 1.791144000000000069e+00 -2.485961999999999783e+00 -3.465900000000000231e-02 1.792645000000000044e+00 -2.485415999999999848e+00 -3.613000000000000239e-02 1.791420000000000012e+00 -2.485609999999999875e+00 -3.308799999999999936e-02 1.793244000000000060e+00 -2.485790999999999862e+00 -3.351300000000000112e-02 1.791590000000000016e+00 -2.486118999999999968e+00 -3.355400000000000049e-02 1.793436000000000030e+00 -2.485621000000000080e+00 -3.331699999999999939e-02 1.791501999999999928e+00 -2.485956999999999972e+00 -3.342500000000000332e-02 1.793269000000000002e+00 -2.485091000000000161e+00 -3.363900000000000223e-02 1.791420000000000012e+00 2.487179999999999946e+00 3.384100000000000302e-02 -1.796014999999999917e+00 2.486188999999999982e+00 3.547399999999999859e-02 -1.794553000000000065e+00 2.486984000000000083e+00 3.361700000000000105e-02 -1.795749999999999957e+00 2.486021000000000036e+00 3.530900000000000011e-02 -1.794505000000000017e+00 2.486625999999999781e+00 3.350299999999999806e-02 -1.796157999999999921e+00 2.485882999999999843e+00 3.552199999999999802e-02 -1.794097999999999971e+00 2.486857000000000095e+00 3.392799999999999983e-02 -1.795163000000000064e+00 2.486053000000000068e+00 3.412599999999999661e-02 -1.794540000000000024e+00 2.487022000000000066e+00 3.380299999999999971e-02 -1.795196000000000014e+00 2.485262000000000082e+00 3.387799999999999839e-02 -1.794202000000000075e+00 2.486874999999999947e+00 3.387199999999999933e-02 -1.795508000000000104e+00 2.486279000000000128e+00 3.396699999999999720e-02 -1.794548999999999950e+00 2.487026000000000181e+00 3.490800000000000153e-02 -1.795061999999999935e+00 2.486123999999999779e+00 3.524200000000000249e-02 -1.794214999999999893e+00 2.486836999999999964e+00 3.542700000000000016e-02 -1.795171000000000072e+00 2.485962999999999923e+00 3.540000000000000091e-02 -1.794321000000000055e+00 2.486174000000000106e+00 3.517699999999999994e-02 -1.794640999999999931e+00 2.486680999999999919e+00 3.540499999999999897e-02 -1.793917999999999902e+00 -1.830000000000000029e-04 -1.147999999999999932e-03 1.485999999999999908e-03 -2.486263999999999807e+00 -3.421400000000000136e-02 1.791857999999999951e+00 3.119999999999999944e-04 -1.335000000000000032e-03 -8.199999999999999824e-04 -2.485479999999999912e+00 -3.490499999999999853e-02 1.790701000000000098e+00 -1.749999999999999982e-04 -1.340999999999999961e-03 9.210000000000000521e-04 -2.485743999999999954e+00 -3.494200000000000084e-02 1.792445999999999984e+00 1.177000000000000095e-03 -1.474999999999999966e-03 -6.830000000000000134e-04 -2.485300000000000065e+00 -3.469699999999999868e-02 1.790389000000000008e+00 -9.999999999999999547e-07 -1.561000000000000104e-03 1.363999999999999978e-03 -2.485994999999999955e+00 -3.471899999999999986e-02 1.791852999999999918e+00 6.120000000000000223e-04 -1.704000000000000003e-03 -3.240000000000000150e-04 -2.485332999999999792e+00 -3.498699999999999727e-02 1.790764999999999940e+00 3.970000000000000005e-04 -1.007999999999999998e-03 1.657999999999999969e-03 -2.486012999999999806e+00 -3.329000000000000015e-02 1.793123000000000022e+00 8.030000000000000028e-04 4.879999999999999898e-04 1.399999999999999979e-05 -2.485555000000000181e+00 -3.496300000000000102e-02 1.791328999999999949e+00 -1.700000000000000122e-04 -9.009999999999999997e-04 8.610000000000000032e-04 -2.485602000000000089e+00 -3.339600000000000207e-02 1.793425999999999965e+00 1.196999999999999930e-03 6.750000000000000357e-04 -7.700000000000000139e-05 -2.485522000000000009e+00 -3.432500000000000134e-02 1.791830999999999952e+00 4.510000000000000120e-04 -1.039999999999999909e-03 1.108000000000000044e-03 -2.486108999999999902e+00 -3.334999999999999770e-02 1.793546000000000085e+00 3.629999999999999872e-04 7.820000000000000345e-04 -2.790000000000000054e-04 -2.485491000000000117e+00 -3.473099999999999798e-02 1.791519000000000084e+00 -2.590000000000000071e-04 7.100000000000000462e-05 2.785999999999999848e-03 -2.485768999999999895e+00 -3.428799999999999903e-02 1.793028000000000066e+00 9.569999999999999514e-04 1.099999999999999971e-05 -3.469999999999999777e-04 -2.485676999999999914e+00 -3.327700000000000102e-02 1.791894000000000098e+00 -4.029999999999999837e-04 -3.249999999999999851e-04 2.920999999999999985e-03 -2.485964000000000063e+00 -3.494900000000000090e-02 1.792920999999999987e+00 9.610000000000000486e-04 1.500000000000000038e-05 9.100000000000000287e-05 -2.485694000000000070e+00 -3.301699999999999774e-02 1.791908000000000056e+00 -4.580000000000000195e-04 -2.530000000000000239e-04 2.383999999999999835e-03 -2.485888999999999793e+00 -3.489400000000000140e-02 1.792734000000000050e+00 3.539999999999999853e-04 2.100000000000000087e-04 -9.770000000000000039e-04 -2.485485000000000166e+00 -3.361100000000000199e-02 1.791846000000000050e+00