8.879629089999999891e+00 0.000000000000000000e+00 0.000000000000000000e+00 0.000000000000000000e+00 1.768696480999999920e+01 0.000000000000000000e+00 0.000000000000000000e+00 0.000000000000000000e+00 2.065625190000000089e+01
8.879629089999999891e+00 0.000000000000000000e+00 0.000000000000000000e+00 0.000000000000000000e+00 1.768696480999999920e+01 0.000000000000000000e+00 0.000000000000000000e+00 0.000000000000000000e+00 2.065625190000000089e+01
8.879629089999999891e+00 0.000000000000000000e+00 0.000000000000000000e+00 0.000000000000000000e+00 1.768696480999999920e+01 0.000000000000000000e+00 0.000000000000000000e+00 0.000000000000000000e+00 2.065625190000000089e+01
8.879629089999999891e+00 0.000000000000000000e+00 0.000000000000000000e+00 0.000000000000000000e+00 1.768696480999999920e+01 0.000000000000000000e+00 0.000000000000000000e+00 0.000000000000000000e+00 2.065625190000000089e+01
8.879629089999999891e+00 0.000000000000000000e+00 0.000000000000000000e+00 0.000000000000000000e+00 1.768696480999999920e+01 0.000000000000000000e+00 0.000000000000000000e+00 0.000000000000000000e+00 2.065625190000000089e+01
