1.100000000000000039e-04 1.768200999999999823e+01 4.690800000000000303e+00 1.480050000000000088e+00 2.942870000000000097e+00 4.690760000000000041e+00 1.100000000000000039e-04 3.935259999999999980e+00 2.167780000000000040e+00 1.480050000000000088e+00 9.874500000000000499e-01 2.167769999999999975e+00 2.959989999999999899e+00 1.768200999999999823e+01 4.690800000000000303e+00 4.439930000000000376e+00 2.942870000000000097e+00 4.690760000000000041e+00 2.959989999999999899e+00 3.935259999999999980e+00 2.167780000000000040e+00 4.439930000000000376e+00 9.874500000000000499e-01 2.167769999999999975e+00 5.919870000000000410e+00 1.768200999999999823e+01 4.690800000000000303e+00 7.399799999999999933e+00 2.942870000000000097e+00 4.690760000000000041e+00 5.919859999999999900e+00 3.935259999999999980e+00 2.167780000000000040e+00 7.399799999999999933e+00 9.874500000000000499e-01 2.167769999999999975e+00 1.100000000000000039e-04 5.890699999999999825e+00 4.690800000000000303e+00 1.480050000000000088e+00 8.838520000000000820e+00 4.690760000000000041e+00 1.100000000000000039e-04 9.830920000000000769e+00 2.167780000000000040e+00 1.480050000000000088e+00 6.883099999999999774e+00 2.167769999999999975e+00 2.959989999999999899e+00 5.890699999999999825e+00 4.690800000000000303e+00 4.439930000000000376e+00 8.838520000000000820e+00 4.690760000000000041e+00 2.959989999999999899e+00 9.830920000000000769e+00 2.167780000000000040e+00 4.439930000000000376e+00 6.883099999999999774e+00 2.167769999999999975e+00 5.919870000000000410e+00 5.890699999999999825e+00 4.690800000000000303e+00 7.399799999999999933e+00 8.838520000000000820e+00 4.690760000000000041e+00 5.919859999999999900e+00 9.830920000000000769e+00 2.167780000000000040e+00 7.399799999999999933e+00 6.883099999999999774e+00 2.167769999999999975e+00 1.100000000000000039e-04 1.178635000000000055e+01 4.690800000000000303e+00 1.480050000000000088e+00 1.473418000000000028e+01 4.690760000000000041e+00 1.100000000000000039e-04 1.572657000000000060e+01 2.167780000000000040e+00 1.480050000000000088e+00 1.277876000000000012e+01 2.167769999999999975e+00 2.959989999999999899e+00 1.178635000000000055e+01 4.690800000000000303e+00 4.439930000000000376e+00 1.473418000000000028e+01 4.690760000000000041e+00 2.959989999999999899e+00 1.572657000000000060e+01 2.167780000000000040e+00 4.439930000000000376e+00 1.277876000000000012e+01 2.167769999999999975e+00 5.919870000000000410e+00 1.178635000000000055e+01 4.690800000000000303e+00 7.399799999999999933e+00 1.473418000000000028e+01 4.690760000000000041e+00 5.919859999999999900e+00 1.572657000000000060e+01 2.167780000000000040e+00 7.399799999999999933e+00 1.277876000000000012e+01 2.167769999999999975e+00 1.100000000000000039e-04 1.768200999999999823e+01 1.157621999999999929e+01 1.480050000000000088e+00 2.942870000000000097e+00 1.157618000000000080e+01 1.100000000000000039e-04 3.935259999999999980e+00 9.053200000000000358e+00 1.480050000000000088e+00 9.874500000000000499e-01 9.053190000000000737e+00 2.959989999999999899e+00 1.768200999999999823e+01 1.157621999999999929e+01 4.439930000000000376e+00 2.942870000000000097e+00 1.157618000000000080e+01 2.959989999999999899e+00 3.935259999999999980e+00 9.053200000000000358e+00 4.439930000000000376e+00 9.874500000000000499e-01 9.053190000000000737e+00 5.919870000000000410e+00 1.768200999999999823e+01 1.157621999999999929e+01 7.399799999999999933e+00 2.942870000000000097e+00 1.157618000000000080e+01 5.919859999999999900e+00 3.935259999999999980e+00 9.053200000000000358e+00 7.399799999999999933e+00 9.874500000000000499e-01 9.053190000000000737e+00 1.100000000000000039e-04 5.890699999999999825e+00 1.157621999999999929e+01 1.480050000000000088e+00 8.838520000000000820e+00 1.157618000000000080e+01 1.100000000000000039e-04 9.830920000000000769e+00 9.053200000000000358e+00 1.480050000000000088e+00 6.883099999999999774e+00 9.053190000000000737e+00 2.959989999999999899e+00 5.890699999999999825e+00 1.157621999999999929e+01 4.439930000000000376e+00 8.838520000000000820e+00 1.157618000000000080e+01 2.959989999999999899e+00 9.830920000000000769e+00 9.053200000000000358e+00 4.439930000000000376e+00 6.883099999999999774e+00 9.053190000000000737e+00 5.919870000000000410e+00 5.890699999999999825e+00 1.157621999999999929e+01 7.399799999999999933e+00 8.838520000000000820e+00 1.157618000000000080e+01 5.919859999999999900e+00 9.830920000000000769e+00 9.053200000000000358e+00 7.399799999999999933e+00 6.883099999999999774e+00 9.053190000000000737e+00 1.100000000000000039e-04 1.178635000000000055e+01 1.157621999999999929e+01 1.480050000000000088e+00 1.473418000000000028e+01 1.157618000000000080e+01 1.100000000000000039e-04 1.572657000000000060e+01 9.053200000000000358e+00 1.480050000000000088e+00 1.277876000000000012e+01 9.053190000000000737e+00 2.959989999999999899e+00 1.178635000000000055e+01 1.157621999999999929e+01 4.439930000000000376e+00 1.473418000000000028e+01 1.157618000000000080e+01 2.959989999999999899e+00 1.572657000000000060e+01 9.053200000000000358e+00 4.439930000000000376e+00 1.277876000000000012e+01 9.053190000000000737e+00 5.919870000000000410e+00 1.178635000000000055e+01 1.157621999999999929e+01 7.399799999999999933e+00 1.473418000000000028e+01 1.157618000000000080e+01 5.919859999999999900e+00 1.572657000000000060e+01 9.053200000000000358e+00 7.399799999999999933e+00 1.277876000000000012e+01 9.053190000000000737e+00 1.100000000000000039e-04 1.768200999999999823e+01 1.846163999999999916e+01 1.480050000000000088e+00 2.942870000000000097e+00 1.846160000000000068e+01 1.100000000000000039e-04 3.935259999999999980e+00 1.593862000000000023e+01 1.480050000000000088e+00 9.874500000000000499e-01 1.593861000000000061e+01 2.959989999999999899e+00 1.768200999999999823e+01 1.846163999999999916e+01 4.439930000000000376e+00 2.942870000000000097e+00 1.846160000000000068e+01 2.959989999999999899e+00 3.935259999999999980e+00 1.593862000000000023e+01 4.439930000000000376e+00 9.874500000000000499e-01 1.593861000000000061e+01 5.919870000000000410e+00 1.768200999999999823e+01 1.846163999999999916e+01 7.399799999999999933e+00 2.942870000000000097e+00 1.846160000000000068e+01 5.919859999999999900e+00 3.935259999999999980e+00 1.593862000000000023e+01 7.399799999999999933e+00 9.874500000000000499e-01 1.593861000000000061e+01 1.100000000000000039e-04 5.890699999999999825e+00 1.846163999999999916e+01 1.480050000000000088e+00 8.838520000000000820e+00 1.846160000000000068e+01 1.100000000000000039e-04 9.830920000000000769e+00 1.593862000000000023e+01 1.480050000000000088e+00 6.883099999999999774e+00 1.593861000000000061e+01 2.959989999999999899e+00 5.890699999999999825e+00 1.846163999999999916e+01 4.439930000000000376e+00 8.838520000000000820e+00 1.846160000000000068e+01 2.959989999999999899e+00 9.830920000000000769e+00 1.593862000000000023e+01 4.439930000000000376e+00 6.883099999999999774e+00 1.593861000000000061e+01 5.919870000000000410e+00 5.890699999999999825e+00 1.846163999999999916e+01 7.399799999999999933e+00 8.838520000000000820e+00 1.846160000000000068e+01 5.919859999999999900e+00 9.830920000000000769e+00 1.593862000000000023e+01 7.399799999999999933e+00 6.883099999999999774e+00 1.593861000000000061e+01 1.100000000000000039e-04 1.178635000000000055e+01 1.846163999999999916e+01 1.480050000000000088e+00 1.473418000000000028e+01 1.846160000000000068e+01 1.100000000000000039e-04 1.572657000000000060e+01 1.593862000000000023e+01 1.480050000000000088e+00 1.277876000000000012e+01 1.593861000000000061e+01 2.959989999999999899e+00 1.178635000000000055e+01 1.846163999999999916e+01 4.439930000000000376e+00 1.473418000000000028e+01 1.846160000000000068e+01 2.959989999999999899e+00 1.572657000000000060e+01 1.593862000000000023e+01 4.439930000000000376e+00 1.277876000000000012e+01 1.593861000000000061e+01 5.919870000000000410e+00 1.178635000000000055e+01 1.846163999999999916e+01 7.399799999999999933e+00 1.473418000000000028e+01 1.846160000000000068e+01 5.919859999999999900e+00 1.572657000000000060e+01 1.593862000000000023e+01 7.399799999999999933e+00 1.277876000000000012e+01 1.593861000000000061e+01 1.299999999999999886e-04 1.965200000000000058e+00 3.429199999999999804e+00 1.299999999999999886e-04 3.962400000000000144e+00 5.684789999999999566e+00 1.480059999999999931e+00 2.915799999999999947e+00 1.173650000000000082e+00 1.200000000000000030e-04 1.765491000000000099e+01 1.173689999999999900e+00 1.480069999999999997e+00 4.912980000000000125e+00 3.429199999999999804e+00 1.480069999999999997e+00 1.014580000000000037e+00 5.684750000000000192e+00 2.960010000000000030e+00 1.965200000000000058e+00 3.429199999999999804e+00 2.960010000000000030e+00 3.962400000000000144e+00 5.684789999999999566e+00 4.439939999999999998e+00 2.915799999999999947e+00 1.173650000000000082e+00 2.959999999999999964e+00 1.765491000000000099e+01 1.173689999999999900e+00 4.439949999999999619e+00 4.912980000000000125e+00 3.429199999999999804e+00 4.439939999999999998e+00 1.014580000000000037e+00 5.684750000000000192e+00 5.919889999999999652e+00 1.965200000000000058e+00 3.429199999999999804e+00 5.919880000000000031e+00 3.962400000000000144e+00 5.684789999999999566e+00 7.399810000000000443e+00 2.915799999999999947e+00 1.173650000000000082e+00 5.919880000000000031e+00 1.765491000000000099e+01 1.173689999999999900e+00 7.399829999999999686e+00 4.912980000000000125e+00 3.429199999999999804e+00 7.399820000000000064e+00 1.014580000000000037e+00 5.684750000000000192e+00 1.299999999999999886e-04 7.860850000000000115e+00 3.429199999999999804e+00 1.299999999999999886e-04 9.858060000000000045e+00 5.684789999999999566e+00 1.480059999999999931e+00 8.811450000000000671e+00 1.173650000000000082e+00 1.200000000000000030e-04 5.863599999999999923e+00 1.173689999999999900e+00 1.480069999999999997e+00 1.080864000000000047e+01 3.429199999999999804e+00 1.480069999999999997e+00 6.910239999999999938e+00 5.684750000000000192e+00 2.960010000000000030e+00 7.860850000000000115e+00 3.429199999999999804e+00 2.960010000000000030e+00 9.858060000000000045e+00 5.684789999999999566e+00 4.439939999999999998e+00 8.811450000000000671e+00 1.173650000000000082e+00 2.959999999999999964e+00 5.863599999999999923e+00 1.173689999999999900e+00 4.439949999999999619e+00 1.080864000000000047e+01 3.429199999999999804e+00 4.439939999999999998e+00 6.910239999999999938e+00 5.684750000000000192e+00 5.919889999999999652e+00 7.860850000000000115e+00 3.429199999999999804e+00 5.919880000000000031e+00 9.858060000000000045e+00 5.684789999999999566e+00 7.399810000000000443e+00 8.811450000000000671e+00 1.173650000000000082e+00 5.919880000000000031e+00 5.863599999999999923e+00 1.173689999999999900e+00 7.399829999999999686e+00 1.080864000000000047e+01 3.429199999999999804e+00 7.399820000000000064e+00 6.910239999999999938e+00 5.684750000000000192e+00 1.299999999999999886e-04 1.375651000000000046e+01 3.429199999999999804e+00 1.299999999999999886e-04 1.575370999999999988e+01 5.684789999999999566e+00 1.480059999999999931e+00 1.470711000000000013e+01 1.173650000000000082e+00 1.200000000000000030e-04 1.175925999999999938e+01 1.173689999999999900e+00 1.480069999999999997e+00 1.670429000000000030e+01 3.429199999999999804e+00 1.480069999999999997e+00 1.280588999999999977e+01 5.684750000000000192e+00 2.960010000000000030e+00 1.375651000000000046e+01 3.429199999999999804e+00 2.960010000000000030e+00 1.575370999999999988e+01 5.684789999999999566e+00 4.439939999999999998e+00 1.470711000000000013e+01 1.173650000000000082e+00 2.959999999999999964e+00 1.175925999999999938e+01 1.173689999999999900e+00 4.439949999999999619e+00 1.670429000000000030e+01 3.429199999999999804e+00 4.439939999999999998e+00 1.280588999999999977e+01 5.684750000000000192e+00 5.919889999999999652e+00 1.375651000000000046e+01 3.429199999999999804e+00 5.919880000000000031e+00 1.575370999999999988e+01 5.684789999999999566e+00 7.399810000000000443e+00 1.470711000000000013e+01 1.173650000000000082e+00 5.919880000000000031e+00 1.175925999999999938e+01 1.173689999999999900e+00 7.399829999999999686e+00 1.670429000000000030e+01 3.429199999999999804e+00 7.399820000000000064e+00 1.280588999999999977e+01 5.684750000000000192e+00 1.299999999999999886e-04 1.965200000000000058e+00 1.031461999999999968e+01 1.299999999999999886e-04 3.962400000000000144e+00 1.257020999999999944e+01 1.480059999999999931e+00 2.915799999999999947e+00 8.059070000000000178e+00 1.200000000000000030e-04 1.765491000000000099e+01 8.059100000000000819e+00 1.480069999999999997e+00 4.912980000000000125e+00 1.031461999999999968e+01 1.480069999999999997e+00 1.014580000000000037e+00 1.257016999999999918e+01 2.960010000000000030e+00 1.965200000000000058e+00 1.031461999999999968e+01 2.960010000000000030e+00 3.962400000000000144e+00 1.257020999999999944e+01 4.439939999999999998e+00 2.915799999999999947e+00 8.059070000000000178e+00 2.959999999999999964e+00 1.765491000000000099e+01 8.059100000000000819e+00 4.439949999999999619e+00 4.912980000000000125e+00 1.031461999999999968e+01 4.439939999999999998e+00 1.014580000000000037e+00 1.257016999999999918e+01 5.919889999999999652e+00 1.965200000000000058e+00 1.031461999999999968e+01 5.919880000000000031e+00 3.962400000000000144e+00 1.257020999999999944e+01 7.399810000000000443e+00 2.915799999999999947e+00 8.059070000000000178e+00 5.919880000000000031e+00 1.765491000000000099e+01 8.059100000000000819e+00 7.399829999999999686e+00 4.912980000000000125e+00 1.031461999999999968e+01 7.399820000000000064e+00 1.014580000000000037e+00 1.257016999999999918e+01 1.299999999999999886e-04 7.860850000000000115e+00 1.031461999999999968e+01 1.299999999999999886e-04 9.858060000000000045e+00 1.257020999999999944e+01 1.480059999999999931e+00 8.811450000000000671e+00 8.059070000000000178e+00 1.200000000000000030e-04 5.863599999999999923e+00 8.059100000000000819e+00 1.480069999999999997e+00 1.080864000000000047e+01 1.031461999999999968e+01 1.480069999999999997e+00 6.910239999999999938e+00 1.257016999999999918e+01 2.960010000000000030e+00 7.860850000000000115e+00 1.031461999999999968e+01 2.960010000000000030e+00 9.858060000000000045e+00 1.257020999999999944e+01 4.439939999999999998e+00 8.811450000000000671e+00 8.059070000000000178e+00 2.959999999999999964e+00 5.863599999999999923e+00 8.059100000000000819e+00 4.439949999999999619e+00 1.080864000000000047e+01 1.031461999999999968e+01 4.439939999999999998e+00 6.910239999999999938e+00 1.257016999999999918e+01 5.919889999999999652e+00 7.860850000000000115e+00 1.031461999999999968e+01 5.919880000000000031e+00 9.858060000000000045e+00 1.257020999999999944e+01 7.399810000000000443e+00 8.811450000000000671e+00 8.059070000000000178e+00 5.919880000000000031e+00 5.863599999999999923e+00 8.059100000000000819e+00 7.399829999999999686e+00 1.080864000000000047e+01 1.031461999999999968e+01 7.399820000000000064e+00 6.910239999999999938e+00 1.257016999999999918e+01 1.299999999999999886e-04 1.375651000000000046e+01 1.031461999999999968e+01 1.299999999999999886e-04 1.575370999999999988e+01 1.257020999999999944e+01 1.480059999999999931e+00 1.470711000000000013e+01 8.059070000000000178e+00 1.200000000000000030e-04 1.175925999999999938e+01 8.059100000000000819e+00 1.480069999999999997e+00 1.670429000000000030e+01 1.031461999999999968e+01 1.480069999999999997e+00 1.280588999999999977e+01 1.257016999999999918e+01 2.960010000000000030e+00 1.375651000000000046e+01 1.031461999999999968e+01 2.960010000000000030e+00 1.575370999999999988e+01 1.257020999999999944e+01 4.439939999999999998e+00 1.470711000000000013e+01 8.059070000000000178e+00 2.959999999999999964e+00 1.175925999999999938e+01 8.059100000000000819e+00 4.439949999999999619e+00 1.670429000000000030e+01 1.031461999999999968e+01 4.439939999999999998e+00 1.280588999999999977e+01 1.257016999999999918e+01 5.919889999999999652e+00 1.375651000000000046e+01 1.031461999999999968e+01 5.919880000000000031e+00 1.575370999999999988e+01 1.257020999999999944e+01 7.399810000000000443e+00 1.470711000000000013e+01 8.059070000000000178e+00 5.919880000000000031e+00 1.175925999999999938e+01 8.059100000000000819e+00 7.399829999999999686e+00 1.670429000000000030e+01 1.031461999999999968e+01 7.399820000000000064e+00 1.280588999999999977e+01 1.257016999999999918e+01 1.299999999999999886e-04 1.965200000000000058e+00 1.720003000000000171e+01 1.299999999999999886e-04 3.962400000000000144e+00 1.945561999999999969e+01 1.480059999999999931e+00 2.915799999999999947e+00 1.494449000000000005e+01 1.200000000000000030e-04 1.765491000000000099e+01 1.494452000000000069e+01 1.480069999999999997e+00 4.912980000000000125e+00 1.720003000000000171e+01 1.480069999999999997e+00 1.014580000000000037e+00 1.945559000000000083e+01 2.960010000000000030e+00 1.965200000000000058e+00 1.720003000000000171e+01 2.960010000000000030e+00 3.962400000000000144e+00 1.945561999999999969e+01 4.439939999999999998e+00 2.915799999999999947e+00 1.494449000000000005e+01 2.959999999999999964e+00 1.765491000000000099e+01 1.494452000000000069e+01 4.439949999999999619e+00 4.912980000000000125e+00 1.720003000000000171e+01 4.439939999999999998e+00 1.014580000000000037e+00 1.945559000000000083e+01 5.919889999999999652e+00 1.965200000000000058e+00 1.720003000000000171e+01 5.919880000000000031e+00 3.962400000000000144e+00 1.945561999999999969e+01 7.399810000000000443e+00 2.915799999999999947e+00 1.494449000000000005e+01 5.919880000000000031e+00 1.765491000000000099e+01 1.494452000000000069e+01 7.399829999999999686e+00 4.912980000000000125e+00 1.720003000000000171e+01 7.399820000000000064e+00 1.014580000000000037e+00 1.945559000000000083e+01 1.299999999999999886e-04 7.860850000000000115e+00 1.720003000000000171e+01 1.299999999999999886e-04 9.858060000000000045e+00 1.945561999999999969e+01 1.480059999999999931e+00 8.811450000000000671e+00 1.494449000000000005e+01 1.200000000000000030e-04 5.863599999999999923e+00 1.494452000000000069e+01 1.480069999999999997e+00 1.080864000000000047e+01 1.720003000000000171e+01 1.480069999999999997e+00 6.910239999999999938e+00 1.945559000000000083e+01 2.960010000000000030e+00 7.860850000000000115e+00 1.720003000000000171e+01 2.960010000000000030e+00 9.858060000000000045e+00 1.945561999999999969e+01 4.439939999999999998e+00 8.811450000000000671e+00 1.494449000000000005e+01 2.959999999999999964e+00 5.863599999999999923e+00 1.494452000000000069e+01 4.439949999999999619e+00 1.080864000000000047e+01 1.720003000000000171e+01 4.439939999999999998e+00 6.910239999999999938e+00 1.945559000000000083e+01 5.919889999999999652e+00 7.860850000000000115e+00 1.720003000000000171e+01 5.919880000000000031e+00 9.858060000000000045e+00 1.945561999999999969e+01 7.399810000000000443e+00 8.811450000000000671e+00 1.494449000000000005e+01 5.919880000000000031e+00 5.863599999999999923e+00 1.494452000000000069e+01 7.399829999999999686e+00 1.080864000000000047e+01 1.720003000000000171e+01 7.399820000000000064e+00 6.910239999999999938e+00 1.945559000000000083e+01 1.299999999999999886e-04 1.375651000000000046e+01 1.720003000000000171e+01 1.299999999999999886e-04 1.575370999999999988e+01 1.945561999999999969e+01 1.480059999999999931e+00 1.470711000000000013e+01 1.494449000000000005e+01 1.200000000000000030e-04 1.175925999999999938e+01 1.494452000000000069e+01 1.480069999999999997e+00 1.670429000000000030e+01 1.720003000000000171e+01 1.480069999999999997e+00 1.280588999999999977e+01 1.945559000000000083e+01 2.960010000000000030e+00 1.375651000000000046e+01 1.720003000000000171e+01 2.960010000000000030e+00 1.575370999999999988e+01 1.945561999999999969e+01 4.439939999999999998e+00 1.470711000000000013e+01 1.494449000000000005e+01 2.959999999999999964e+00 1.175925999999999938e+01 1.494452000000000069e+01 4.439949999999999619e+00 1.670429000000000030e+01 1.720003000000000171e+01 4.439939999999999998e+00 1.280588999999999977e+01 1.945559000000000083e+01 5.919889999999999652e+00 1.375651000000000046e+01 1.720003000000000171e+01 5.919880000000000031e+00 1.575370999999999988e+01 1.945561999999999969e+01 7.399810000000000443e+00 1.470711000000000013e+01 1.494449000000000005e+01 5.919880000000000031e+00 1.175925999999999938e+01 1.494452000000000069e+01 7.399829999999999686e+00 1.670429000000000030e+01 1.720003000000000171e+01 7.399820000000000064e+00 1.280588999999999977e+01 1.945559000000000083e+01