-2.793123161989999971e+03
-2.793085789799999930e+03
-2.792975255689999813e+03
-2.792792081359999884e+03
-2.792537464689999979e+03
