2.620000000000000258e-04 1.265499999999999958e-02 -8.399000000000000216e-03 -9.999999999999999547e-07 1.239999999999999956e-02 -8.285999999999999963e-03 2.249999999999999938e-04 -1.265900000000000011e-02 8.685999999999999277e-03 5.959999999999999586e-04 -1.243700000000000014e-02 8.243000000000000327e-03 4.979999999999999618e-04 1.224800000000000021e-02 -9.225999999999999826e-03 2.509999999999999753e-04 1.278699999999999976e-02 -7.538999999999999695e-03 -8.299999999999999815e-05 -1.208299999999999999e-02 8.328999999999999598e-03 1.920000000000000049e-04 -1.308999999999999921e-02 8.434999999999999790e-03 6.999999999999999387e-05 1.213999999999999975e-02 -9.204999999999999641e-03 5.599999999999999509e-04 1.238999999999999997e-02 -8.307999999999999413e-03 5.490000000000000088e-04 -1.201299999999999937e-02 8.404000000000000012e-03 -1.019999999999999992e-04 -1.251000000000000029e-02 8.127000000000000543e-03 3.629999999999999872e-04 1.207000000000000087e-02 -8.184999999999999568e-03 -1.000000000000000082e-05 1.202399999999999997e-02 -8.999000000000000055e-03 2.059999999999999928e-04 -1.232800000000000042e-02 7.917000000000000426e-03 6.040000000000000447e-04 -1.175400000000000056e-02 8.347000000000000253e-03 4.459999999999999989e-04 1.171999999999999952e-02 -8.992999999999999258e-03 3.190000000000000019e-04 1.243900000000000040e-02 -8.156999999999999321e-03 -1.310000000000000129e-04 -1.164899999999999963e-02 7.595000000000000188e-03 1.530000000000000056e-04 -1.240400000000000010e-02 8.613000000000000864e-03 2.500000000000000120e-05 1.168100000000000041e-02 -9.005000000000000851e-03 5.240000000000000517e-04 1.214299999999999928e-02 -8.999999999999999320e-03 6.250000000000000130e-04 -1.168199999999999968e-02 7.699000000000000114e-03 -6.899999999999999667e-05 -1.171200000000000019e-02 8.214000000000000815e-03 3.579999999999999741e-04 1.255000000000000039e-02 -8.753000000000000363e-03 6.700000000000000226e-05 1.238700000000000044e-02 -8.904000000000000456e-03 2.120000000000000031e-04 -1.279300000000000055e-02 7.967000000000000123e-03 6.740000000000000114e-04 -1.214499999999999955e-02 7.676999999999999796e-03 3.739999999999999835e-04 1.223999999999999914e-02 -9.605000000000000690e-03 2.759999999999999867e-04 1.298099999999999948e-02 -8.155000000000000790e-03 -3.699999999999999811e-05 -1.226600000000000086e-02 7.622000000000000303e-03 4.500000000000000283e-05 -1.268500000000000009e-02 7.849000000000000074e-03 8.899999999999999491e-05 1.204200000000000062e-02 -9.573999999999999178e-03 5.019999999999999506e-04 1.256600000000000078e-02 -8.906999999999999987e-03 5.050000000000000235e-04 -1.204599999999999942e-02 7.695999999999999716e-03 -1.299999999999999920e-05 -1.214200000000000002e-02 7.601000000000000117e-03 2.840000000000000185e-04 1.285900000000000064e-02 -8.387000000000000358e-03 -6.600000000000000506e-05 1.236699999999999952e-02 -8.628999999999999518e-03 1.320000000000000101e-04 -1.261999999999999927e-02 8.257999999999999716e-03 7.320000000000000118e-04 -1.203199999999999929e-02 7.927999999999999284e-03 5.150000000000000498e-04 1.234500000000000007e-02 -9.218999999999999764e-03 2.910000000000000260e-04 1.272599999999999947e-02 -7.976000000000000451e-03 -5.000000000000000240e-05 -1.219199999999999971e-02 7.950999999999999734e-03 1.039999999999999936e-04 -1.268200000000000056e-02 8.116999999999999216e-03 2.900000000000000017e-05 1.229700000000000064e-02 -9.178999999999999659e-03 6.049999999999999606e-04 1.243099999999999934e-02 -8.703000000000000666e-03 6.059999999999999849e-04 -1.204500000000000015e-02 7.981999999999999512e-03 -1.579999999999999916e-04 -1.199099999999999992e-02 7.884999999999999648e-03 2.429999999999999977e-04 1.229099999999999984e-02 -8.443000000000000851e-03 9.999999999999999547e-07 1.210999999999999924e-02 -8.434999999999999790e-03 1.569999999999999944e-04 -1.289099999999999968e-02 8.193999999999999895e-03 5.140000000000000254e-04 -1.225900000000000080e-02 8.097000000000000031e-03 5.069999999999999637e-04 1.204999999999999995e-02 -9.223999999999999561e-03 3.009999999999999980e-04 1.243799999999999940e-02 -7.779999999999999589e-03 1.099999999999999971e-05 -1.230700000000000023e-02 7.800999999999999775e-03 2.779999999999999811e-04 -1.271500000000000061e-02 8.316999999999999740e-03 7.799999999999999859e-05 1.203399999999999956e-02 -9.211000000000000437e-03 5.419999999999999471e-04 1.213000000000000016e-02 -8.538999999999999715e-03 5.259999999999999919e-04 -1.234500000000000007e-02 7.795999999999999978e-03 -8.600000000000000331e-05 -1.229000000000000058e-02 7.995999999999999636e-03 1.689999999999999879e-04 1.225200000000000074e-02 -8.094999999999999765e-03 7.600000000000000418e-05 1.256400000000000051e-02 -8.434000000000000524e-03 1.840000000000000001e-04 -1.232800000000000042e-02 7.997000000000000636e-03 6.199999999999999999e-04 -1.214999999999999934e-02 7.848000000000000809e-03 4.850000000000000253e-04 1.184200000000000010e-02 -9.041999999999999690e-03 3.289999999999999739e-04 1.309500000000000074e-02 -7.602000000000000250e-03 -5.500000000000000196e-05 -1.154499999999999971e-02 7.689999999999999787e-03 1.530000000000000056e-04 -1.277599999999999916e-02 8.089999999999999969e-03 1.800000000000000113e-04 1.193199999999999990e-02 -8.944999999999999826e-03 4.130000000000000099e-04 1.247900000000000051e-02 -8.449999999999999178e-03 5.760000000000000146e-04 -1.157099999999999969e-02 7.766999999999999599e-03 -8.600000000000000331e-05 -1.211800000000000030e-02 7.856999999999999401e-03 2.570000000000000127e-04 1.194100000000000023e-02 -8.378999999999999296e-03 3.800000000000000209e-05 1.224100000000000014e-02 -8.914999999999999314e-03 1.620000000000000075e-04 -1.248499999999999957e-02 8.182000000000000037e-03 5.879999999999999810e-04 -1.194199999999999949e-02 8.229999999999999469e-03 4.840000000000000010e-04 1.151300000000000066e-02 -9.242999999999999480e-03 3.029999999999999924e-04 1.266199999999999964e-02 -8.151999999999999524e-03 -6.899999999999999667e-05 -1.182700000000000071e-02 7.854999999999999136e-03 2.010000000000000068e-04 -1.259099999999999976e-02 8.458999999999999506e-03 9.600000000000000243e-05 1.154699999999999997e-02 -9.176000000000000129e-03 4.800000000000000122e-04 1.220800000000000010e-02 -8.958000000000000684e-03 5.829999999999999679e-04 -1.168899999999999974e-02 7.917999999999999691e-03 -1.000000000000000048e-04 -1.195000000000000055e-02 8.217000000000000345e-03 2.229999999999999994e-04 1.262500000000000080e-02 -8.805000000000000326e-03 1.150000000000000035e-04 1.277700000000000016e-02 -8.959999999999999215e-03 2.500000000000000052e-04 -1.271100000000000008e-02 8.349999999999999784e-03 6.449999999999999570e-04 -1.170200000000000060e-02 8.061000000000000457e-03 5.370000000000000424e-04 1.225200000000000074e-02 -9.698000000000000023e-03 2.229999999999999994e-04 1.315500000000000003e-02 -8.193999999999999895e-03 -8.899999999999999491e-05 -1.208799999999999979e-02 8.070000000000000784e-03 2.359999999999999902e-04 -1.247999999999999977e-02 8.243000000000000327e-03 8.700000000000000051e-05 1.222999999999999955e-02 -9.652000000000000857e-03 4.879999999999999898e-04 1.267199999999999924e-02 -8.932000000000000703e-03 5.280000000000000405e-04 -1.197499999999999953e-02 8.163999999999999382e-03 -1.930000000000000021e-04 -1.189199999999999979e-02 7.969999999999999654e-03 2.750000000000000166e-04 1.270400000000000001e-02 -8.378999999999999296e-03 3.899999999999999929e-05 1.213599999999999922e-02 -8.498999999999999611e-03 2.049999999999999956e-04 -1.271899999999999940e-02 8.803999999999999326e-03 6.470000000000000057e-04 -1.222600000000000076e-02 8.580000000000000820e-03 5.360000000000000181e-04 1.222700000000000002e-02 -9.197999999999999579e-03 3.060000000000000111e-04 1.249199999999999963e-02 -7.647000000000000151e-03 -6.499999999999999431e-05 -1.212399999999999936e-02 8.423999999999999197e-03 1.990000000000000124e-04 -1.289399999999999921e-02 8.807999999999999857e-03 1.999999999999999909e-06 1.230599999999999923e-02 -9.173000000000000598e-03 4.879999999999999898e-04 1.212200000000000083e-02 -8.477000000000000160e-03 5.559999999999999621e-04 -1.207399999999999966e-02 8.521000000000000796e-03 -1.600000000000000131e-04 -1.227100000000000066e-02 8.507000000000000672e-03 -2.149999999999999947e-04 -2.550000000000000183e-04 1.510000000000000112e-04 -7.200000000000000182e-05 -1.756800000000000028e-02 1.572700000000000140e-02 -3.899999999999999929e-05 1.577500000000000083e-02 -1.459000000000000054e-02 7.999999999999999638e-06 1.605300000000000130e-02 -1.538300000000000084e-02 -3.980000000000000248e-04 8.700000000000000051e-05 8.270000000000000441e-04 -6.399999999999999710e-05 -1.721599999999999867e-02 1.549700000000000036e-02 -2.239999999999999966e-04 -4.299999999999999894e-04 1.479999999999999925e-04 -2.640000000000000202e-04 -1.735599999999999990e-02 1.533499999999999967e-02 -1.849999999999999973e-04 1.575999999999999970e-02 -1.498099999999999953e-02 9.699999999999999963e-05 1.595500000000000043e-02 -1.504199999999999982e-02 -3.820000000000000153e-04 1.579999999999999916e-04 5.990000000000000316e-04 -2.709999999999999735e-04 -1.746100000000000083e-02 1.584599999999999898e-02 -4.339999999999999782e-04 -4.130000000000000099e-04 1.350000000000000017e-04 -9.100000000000000287e-05 -1.735599999999999990e-02 1.538300000000000084e-02 -1.230000000000000082e-04 1.574400000000000105e-02 -1.456499999999999982e-02 -3.020000000000000223e-04 1.600599999999999939e-02 -1.502399999999999916e-02 -1.550000000000000000e-04 7.999999999999999638e-06 8.580000000000000387e-04 -1.350000000000000017e-04 -1.718199999999999936e-02 1.548899999999999930e-02 -1.569999999999999944e-04 3.609999999999999928e-04 -5.959999999999999586e-04 -9.000000000000000567e-05 -1.775300000000000142e-02 1.498599999999999932e-02 -7.700000000000000139e-05 1.727700000000000069e-02 -1.462600000000000011e-02 4.899999999999999842e-05 1.715200000000000058e-02 -1.509100000000000025e-02 -3.110000000000000243e-04 4.459999999999999989e-04 -4.310000000000000137e-04 -2.500000000000000052e-04 -1.752199999999999938e-02 1.598199999999999968e-02 -3.440000000000000132e-04 2.100000000000000087e-04 -5.829999999999999679e-04 -2.110000000000000059e-04 -1.744300000000000017e-02 1.475600000000000002e-02 -2.570000000000000127e-04 1.722999999999999879e-02 -1.499299999999999938e-02 -9.100000000000000287e-05 1.705800000000000025e-02 -1.484899999999999935e-02 -4.409999999999999858e-04 4.009999999999999893e-04 -5.100000000000000366e-04 -1.879999999999999890e-04 -1.754700000000000010e-02 1.616899999999999935e-02 -4.110000000000000155e-04 2.700000000000000035e-04 -4.290000000000000193e-04 -6.299999999999999990e-05 -1.752599999999999991e-02 1.499400000000000038e-02 5.899999999999999754e-05 1.708499999999999949e-02 -1.461100000000000072e-02 -2.290000000000000098e-04 1.707499999999999990e-02 -1.464799999999999956e-02 -1.649999999999999991e-04 1.949999999999999965e-04 -3.179999999999999776e-04 -9.200000000000000007e-05 -1.743799999999999864e-02 1.596099999999999949e-02 -8.399999999999999535e-05 1.589999999999999888e-04 -8.090000000000000403e-04 -1.610000000000000103e-04 -1.725499999999999950e-02 1.456099999999999929e-02 -1.699999999999999987e-05 1.627899999999999833e-02 -1.460499999999999993e-02 9.600000000000000243e-05 1.731500000000000053e-02 -1.526300000000000053e-02 -2.469999999999999865e-04 -7.799999999999999859e-05 -2.199999999999999943e-05 -7.499999999999999343e-05 -1.680399999999999949e-02 1.516999999999999946e-02 -2.779999999999999811e-04 8.600000000000000331e-05 -8.080000000000000160e-04 -1.910000000000000077e-04 -1.691900000000000001e-02 1.440600000000000040e-02 -2.840000000000000185e-04 1.639399999999999885e-02 -1.514800000000000001e-02 -4.199999999999999768e-05 1.714999999999999858e-02 -1.501899999999999936e-02 -3.539999999999999853e-04 5.199999999999999680e-05 -2.439999999999999949e-04 -2.709999999999999735e-04 -1.713699999999999946e-02 1.520200000000000023e-02 -4.879999999999999898e-04 2.329999999999999986e-04 -7.969999999999999654e-04 -1.110000000000000011e-04 -1.694500000000000173e-02 1.436699999999999956e-02 -2.300000000000000002e-05 1.652299999999999949e-02 -1.466600000000000022e-02 -3.400000000000000244e-04 1.725099999999999897e-02 -1.489399999999999925e-02 -3.370000000000000057e-04 -2.199999999999999943e-05 -4.899999999999999842e-05 -3.100000000000000135e-05 -1.697600000000000151e-02 1.503099999999999922e-02 -3.510000000000000208e-04 3.809999999999999910e-04 3.899999999999999929e-04 -1.910000000000000077e-04 -1.739999999999999880e-02 1.426400000000000064e-02 -1.740000000000000010e-04 1.667199999999999932e-02 -1.388200000000000024e-02 -1.099999999999999971e-05 1.745499999999999829e-02 -1.495200000000000001e-02 -6.089999999999999494e-04 -1.090000000000000067e-04 8.140000000000000534e-04 -1.410000000000000120e-04 -1.669299999999999951e-02 1.503400000000000049e-02 -1.489999999999999897e-04 1.320000000000000101e-04 3.170000000000000075e-04 -2.999999999999999737e-04 -1.712899999999999839e-02 1.409000000000000009e-02 -8.700000000000000051e-05 1.660299999999999970e-02 -1.422900000000000033e-02 3.899999999999999929e-05 1.735700000000000090e-02 -1.465100000000000083e-02 -2.100000000000000087e-04 1.399999999999999979e-05 6.629999999999999609e-04 -1.119999999999999983e-04 -1.692700000000000107e-02 1.525600000000000046e-02 -3.559999999999999797e-04 1.949999999999999965e-04 4.020000000000000136e-04 6.600000000000000506e-05 -1.706900000000000084e-02 1.404200000000000066e-02 -3.000000000000000076e-06 1.672099999999999975e-02 -1.393400000000000021e-02 -2.790000000000000054e-04 1.730699999999999947e-02 -1.464900000000000056e-02 -1.179999999999999951e-04 -1.160000000000000007e-04 8.019999999999999785e-04 -2.229999999999999994e-04 -1.657199999999999993e-02 1.497000000000000067e-02 -3.820000000000000153e-04 -5.060000000000000478e-04 -5.000000000000000409e-06 -1.649999999999999991e-04 -1.792399999999999896e-02 1.539800000000000023e-02 -2.010000000000000068e-04 1.584800000000000098e-02 -1.382599999999999975e-02 -1.340000000000000045e-04 1.659499999999999864e-02 -1.437699999999999916e-02 -4.429999999999999802e-04 -7.050000000000000060e-04 5.680000000000000370e-04 -2.190000000000000106e-04 -1.703899999999999859e-02 1.485999999999999995e-02 -1.050000000000000044e-04 -5.980000000000000072e-04 6.299999999999999990e-05 -2.809999999999999998e-04 -1.774799999999999989e-02 1.525699999999999973e-02 4.899999999999999842e-05 1.604600000000000123e-02 -1.419499999999999929e-02 -1.420000000000000092e-04 1.658700000000000105e-02 -1.399099999999999996e-02 -2.900000000000000017e-04 -6.520000000000000188e-04 3.680000000000000003e-04 -3.699999999999999811e-05 -1.738299999999999915e-02 1.516999999999999946e-02 -3.739999999999999835e-04 -6.250000000000000130e-04 3.899999999999999929e-05 1.459999999999999981e-04 -1.771100000000000105e-02 1.499200000000000012e-02 -9.100000000000000287e-05 1.591800000000000159e-02 -1.378799999999999991e-02 -1.900000000000000105e-05 1.660899999999999876e-02 -1.386199999999999932e-02 -2.139999999999999975e-04 -7.309999999999999875e-04 7.330000000000000361e-04 -2.410000000000000033e-04 -1.712999999999999939e-02 1.482299999999999937e-02 -4.130000000000000099e-04 6.299999999999999990e-05 -2.079999999999999872e-04 -2.290000000000000098e-04 -1.690600000000000089e-02 1.517800000000000052e-02 -1.330000000000000073e-04 1.704200000000000159e-02 -1.476000000000000055e-02 6.200000000000000270e-05 1.673499999999999988e-02 -1.517300000000000072e-02 -1.820000000000000057e-04 9.039999999999999642e-04 5.060000000000000478e-04 -1.820000000000000057e-04 -1.740299999999999833e-02 1.564400000000000165e-02 -1.890000000000000133e-04 5.000000000000000409e-06 -1.359999999999999989e-04 5.300000000000000078e-05 -1.666099999999999873e-02 1.496800000000000040e-02 -1.289999999999999914e-04 1.723600000000000132e-02 -1.498099999999999953e-02 -9.799999999999999684e-05 1.667300000000000032e-02 -1.494799999999999948e-02 -3.110000000000000243e-04 9.319999999999999942e-04 5.339999999999999695e-04 1.200000000000000030e-04 -1.759900000000000006e-02 1.596300000000000149e-02 -2.660000000000000146e-04 3.199999999999999855e-05 1.190000000000000058e-04 -1.600000000000000131e-04 -1.669500000000000151e-02 1.490299999999999958e-02 1.099999999999999971e-05 1.708300000000000096e-02 -1.458699999999999927e-02 -1.479999999999999925e-04 1.654299999999999868e-02 -1.475899999999999955e-02 -4.459999999999999989e-04 8.469999999999999881e-04 6.509999999999999945e-04 -2.959999999999999849e-04 -1.742099999999999899e-02 1.581300000000000067e-02 -3.319999999999999926e-04 -2.680000000000000090e-04 -3.780000000000000265e-04 -1.019999999999999992e-04 -1.708399999999999849e-02 1.461699999999999978e-02 -3.350000000000000113e-04 1.662900000000000142e-02 -1.472799999999999977e-02 -1.420000000000000092e-04 1.730100000000000041e-02 -1.474299999999999916e-02 -3.480000000000000020e-04 1.849999999999999973e-04 3.220000000000000206e-04 -5.700000000000000314e-05 -1.778100000000000167e-02 1.518199999999999932e-02 -1.930000000000000021e-04 -4.519999999999999821e-04 -2.110000000000000059e-04 -1.310000000000000129e-04 -1.692700000000000107e-02 1.452600000000000072e-02 -1.800000000000000046e-05 1.668999999999999997e-02 -1.492300000000000050e-02 1.500000000000000038e-05 1.717000000000000123e-02 -1.448900000000000014e-02 -2.359999999999999902e-04 3.119999999999999944e-04 1.090000000000000067e-04 -6.600000000000000506e-05 -1.794600000000000015e-02 1.549099999999999956e-02 -3.570000000000000040e-04 -4.189999999999999931e-04 -1.679999999999999907e-04 -1.410000000000000120e-04 -1.699600000000000069e-02 1.442399999999999932e-02 -5.199999999999999680e-05 1.669100000000000097e-02 -1.468000000000000034e-02 -1.569999999999999944e-04 1.707099999999999937e-02 -1.446300000000000016e-02 -3.379999999999999758e-04 1.840000000000000001e-04 2.249999999999999938e-04 -2.469999999999999865e-04 -1.776200000000000001e-02 1.523599999999999954e-02 -1.510000000000000112e-04 4.000000000000000192e-04 -2.889999999999999774e-04 -3.999999999999999819e-06 -1.672999999999999834e-02 1.401699999999999995e-02 -2.349999999999999930e-04 1.678999999999999937e-02 -1.403199999999999933e-02 -2.249999999999999938e-04 1.739800000000000027e-02 -1.538199999999999984e-02 -1.869999999999999917e-04 -6.999999999999999387e-05 9.340000000000000429e-04 6.999999999999999895e-06 -1.625499999999999862e-02 1.439900000000000034e-02 -2.709999999999999735e-04 3.119999999999999944e-04 -1.179999999999999951e-04 -2.700000000000000035e-04 -1.639699999999999838e-02 1.380999999999999936e-02 -9.000000000000000567e-05 1.679399999999999990e-02 -1.422099999999999927e-02 1.440000000000000036e-04 1.742000000000000146e-02 -1.486700000000000001e-02 -3.800000000000000209e-04 1.499999999999999869e-04 7.399999999999999894e-04 -1.890000000000000133e-04 -1.649899999999999978e-02 1.451900000000000066e-02 -3.989999999999999949e-04 2.030000000000000012e-04 -2.579999999999999828e-04 -2.059999999999999928e-04 -1.651999999999999996e-02 1.367600000000000066e-02 5.300000000000000078e-05 1.680900000000000102e-02 -1.399000000000000070e-02 -1.559999999999999972e-04 1.736499999999999849e-02 -1.496699999999999940e-02 -2.900000000000000017e-04 5.099999999999999960e-05 7.479999999999999670e-04 -1.289999999999999914e-04 -1.633300000000000030e-02 1.439600000000000081e-02 -2.429999999999999977e-04 -1.630000000000000047e-04 8.570000000000000144e-04 -3.499999999999999693e-05 -1.779499999999999832e-02 1.455099999999999970e-02 -7.299999999999999903e-05 1.644599999999999881e-02 -1.341499999999999984e-02 -2.570000000000000127e-04 1.653200000000000155e-02 -1.424199999999999945e-02 -2.889999999999999774e-04 -4.339999999999999782e-04 1.224000000000000045e-03 9.699999999999999963e-05 -1.681200000000000055e-02 1.471199999999999938e-02 -1.129999999999999955e-04 -3.310000000000000225e-04 1.046000000000000055e-03 -6.299999999999999990e-05 -1.759799999999999906e-02 1.447500000000000002e-02 -5.000000000000000409e-06 1.646299999999999847e-02 -1.394500000000000080e-02 1.129999999999999955e-04 1.649000000000000118e-02 -1.380999999999999936e-02 -2.979999999999999793e-04 -4.279999999999999950e-04 1.039999999999999909e-03 -2.709999999999999735e-04 -1.697200000000000097e-02 1.497500000000000046e-02 -5.109999999999999525e-04 -2.550000000000000183e-04 9.240000000000000166e-04 -2.829999999999999942e-04 -1.749699999999999867e-02 1.444400000000000024e-02 -2.020000000000000040e-04 1.630500000000000005e-02 -1.358200000000000032e-02 -1.530000000000000056e-04 1.654299999999999868e-02 -1.380400000000000030e-02 -3.680000000000000003e-04 -3.719999999999999891e-04 1.183000000000000024e-03 -2.149999999999999947e-04 -1.682000000000000162e-02 1.466499999999999922e-02