-4.702363457899999730e+02
-4.702363471300000128e+02
-4.702363498299999947e+02
-4.702363539599999740e+02
-4.702363595900000064e+02
-4.702363668099999927e+02
