-1.412880967309999960e+03
-1.412880968789999997e+03
-1.412880971510000109e+03
-1.412880975799999987e+03
-1.412880981649999967e+03
