9.331569455161682569e+00 0.000000000000000000e+00 3.892069476758325845e-17 0.000000000000000000e+00 1.612921861999999962e+01 0.000000000000000000e+00 1.394720796038180666e+00 0.000000000000000000e+00 2.161759454747915044e+01
9.331569455161682569e+00 0.000000000000000000e+00 3.892069476758325845e-17 0.000000000000000000e+00 1.612921861999999962e+01 0.000000000000000000e+00 1.394720796038180666e+00 0.000000000000000000e+00 2.161759454747915044e+01
9.331569455161682569e+00 0.000000000000000000e+00 3.892069476758325845e-17 0.000000000000000000e+00 1.612921861999999962e+01 0.000000000000000000e+00 1.394720796038180666e+00 0.000000000000000000e+00 2.161759454747915044e+01
9.331569455161682569e+00 0.000000000000000000e+00 3.892069476758325845e-17 0.000000000000000000e+00 1.612921861999999962e+01 0.000000000000000000e+00 1.394720796038180666e+00 0.000000000000000000e+00 2.161759454747915044e+01
9.331569455161682569e+00 0.000000000000000000e+00 3.892069476758325845e-17 0.000000000000000000e+00 1.612921861999999962e+01 0.000000000000000000e+00 1.394720796038180666e+00 0.000000000000000000e+00 2.161759454747915044e+01
