9.578154060696318695e+00 1.600000000000000131e-04 4.866757765573157535e+00 1.801850384500928381e+00 2.688359999999999861e+00 4.866767256318495605e+00 2.167552769331291540e-01 3.584039999999999893e+00 2.310909107953326824e+00 1.772022514795330794e+00 8.958300000000000152e-01 2.310914806901896767e+00 3.357106355431312750e+00 1.600000000000000131e-04 4.866753640603013409e+00 4.912374237133431798e+00 2.688359999999999861e+00 4.866769318803567224e+00 3.327279129565631877e+00 3.584039999999999893e+00 2.310911170438399331e+00 4.882546367427832656e+00 8.958300000000000152e-01 2.310916869386969275e+00 6.467630208063814834e+00 1.600000000000000131e-04 4.866755703088085028e+00 8.022887466674031742e+00 2.688359999999999861e+00 4.866762045876572351e+00 6.437802982198134849e+00 3.584039999999999893e+00 2.310913232923471394e+00 7.993069576220419137e+00 8.958300000000000152e-01 2.310908952620056578e+00 9.578154060696318695e+00 5.376559999999999562e+00 4.866757765573157535e+00 1.801850384500928381e+00 8.064759999999999707e+00 4.866767256318495605e+00 2.167552769331291540e-01 8.960440000000000182e+00 2.310909107953326824e+00 1.772022514795330794e+00 6.272240000000000038e+00 2.310914806901896767e+00 3.357106355431312750e+00 5.376559999999999562e+00 4.866753640603013409e+00 4.912374237133431798e+00 8.064759999999999707e+00 4.866769318803567224e+00 3.327279129565631877e+00 8.960440000000000182e+00 2.310911170438399331e+00 4.882546367427832656e+00 6.272240000000000038e+00 2.310916869386969275e+00 6.467630208063814834e+00 5.376559999999999562e+00 4.866755703088085028e+00 8.022887466674031742e+00 8.064759999999999707e+00 4.866762045876572351e+00 6.437802982198134849e+00 8.960440000000000182e+00 2.310913232923471394e+00 7.993069576220419137e+00 6.272240000000000038e+00 2.310908952620056578e+00 9.578154060696318695e+00 1.075296999999999947e+01 4.866757765573157535e+00 1.801850384500928381e+00 1.344116999999999962e+01 4.866767256318495605e+00 2.167552769331291540e-01 1.433685000000000009e+01 2.310909107953326824e+00 1.772022514795330794e+00 1.164864000000000033e+01 2.310914806901896767e+00 3.357106355431312750e+00 1.075296999999999947e+01 4.866753640603013409e+00 4.912374237133431798e+00 1.344116999999999962e+01 4.866769318803567224e+00 3.327279129565631877e+00 1.433685000000000009e+01 2.310911170438399331e+00 4.882546367427832656e+00 1.164864000000000033e+01 2.310916869386969275e+00 6.467630208063814834e+00 1.075296999999999947e+01 4.866755703088085028e+00 8.022887466674031742e+00 1.344116999999999962e+01 4.866762045876572351e+00 6.437802982198134849e+00 1.433685000000000009e+01 2.310913232923471394e+00 7.993069576220419137e+00 1.164864000000000033e+01 2.310908952620056578e+00 1.004306120689312465e+01 1.600000000000000131e-04 1.207262593449736698e+01 2.266756886857817399e+00 2.688359999999999861e+00 1.207262544599072029e+01 6.816624231299349690e-01 3.584039999999999893e+00 9.516777276877537162e+00 2.236929660992136526e+00 8.958300000000000152e-01 9.516782975826105329e+00 3.822013501628118259e+00 1.600000000000000131e-04 1.207262180952722197e+01 5.377280739490320371e+00 2.688359999999999861e+00 1.207262750847579191e+01 3.792185631922520894e+00 3.584039999999999893e+00 9.516769360110624021e+00 5.347452869784722118e+00 8.958300000000000152e-01 9.516775059059193964e+00 6.932537354260620788e+00 1.600000000000000131e-04 1.207262387201229359e+01 8.487794612870837696e+00 2.688359999999999861e+00 1.207263021480078180e+01 6.902709484555023423e+00 3.584039999999999893e+00 9.516771422595695640e+00 8.457976722417225091e+00 8.958300000000000152e-01 9.516777121544265583e+00 1.004306120689312465e+01 5.376559999999999562e+00 1.207262593449736698e+01 2.266756886857817399e+00 8.064759999999999707e+00 1.207262544599072029e+01 6.816624231299349690e-01 8.960440000000000182e+00 9.516777276877537162e+00 2.236929660992136526e+00 6.272240000000000038e+00 9.516782975826105329e+00 3.822013501628118259e+00 5.376559999999999562e+00 1.207262180952722197e+01 5.377280739490320371e+00 8.064759999999999707e+00 1.207262750847579191e+01 3.792185631922520894e+00 8.960440000000000182e+00 9.516769360110624021e+00 5.347452869784722118e+00 6.272240000000000038e+00 9.516775059059193964e+00 6.932537354260620788e+00 5.376559999999999562e+00 1.207262387201229359e+01 8.487794612870837696e+00 8.064759999999999707e+00 1.207263021480078180e+01 6.902709484555023423e+00 8.960440000000000182e+00 9.516771422595695640e+00 8.457976722417225091e+00 6.272240000000000038e+00 9.516777121544265583e+00 1.004306120689312465e+01 1.075296999999999947e+01 1.207262593449736698e+01 2.266756886857817399e+00 1.344116999999999962e+01 1.207262544599072029e+01 6.816624231299349690e-01 1.433685000000000009e+01 9.516777276877537162e+00 2.236929660992136526e+00 1.164864000000000033e+01 9.516782975826105329e+00 3.822013501628118259e+00 1.075296999999999947e+01 1.207262180952722197e+01 5.377280739490320371e+00 1.344116999999999962e+01 1.207262750847579191e+01 3.792185631922520894e+00 1.433685000000000009e+01 9.516769360110624021e+00 5.347452869784722118e+00 1.164864000000000033e+01 9.516775059059193964e+00 6.932537354260620788e+00 1.075296999999999947e+01 1.207262387201229359e+01 8.487794612870837696e+00 1.344116999999999962e+01 1.207263021480078180e+01 6.902709484555023423e+00 1.433685000000000009e+01 9.516771422595695640e+00 8.457976722417225091e+00 1.164864000000000033e+01 9.516777121544265583e+00 1.050796770925001233e+01 1.600000000000000131e-04 1.927848412416959434e+01 2.731664033054623353e+00 2.688359999999999861e+00 1.927849361491493241e+01 1.146568925486824098e+00 3.584039999999999893e+00 1.672263546654976096e+01 2.701836163349025544e+00 8.958300000000000152e-01 1.672264116549833091e+01 4.286920647824924657e+00 1.600000000000000131e-04 1.927848997845143586e+01 5.842187885687126325e+00 2.688359999999999861e+00 1.927849567740000225e+01 4.257092778119326404e+00 3.584039999999999893e+00 1.672263752903483436e+01 5.812360015981527184e+00 8.958300000000000152e-01 1.672264322798340075e+01 7.397443856617509361e+00 1.600000000000000131e-04 1.927848206168451739e+01 8.952701759067643650e+00 2.688359999999999861e+00 1.927849838372499036e+01 7.367616630751829376e+00 3.584039999999999893e+00 1.672263959151990420e+01 8.922883868614031044e+00 8.958300000000000152e-01 1.672264529046847770e+01 1.050796770925001233e+01 5.376559999999999562e+00 1.927848412416959434e+01 2.731664033054623353e+00 8.064759999999999707e+00 1.927849361491493241e+01 1.146568925486824098e+00 8.960440000000000182e+00 1.672263546654976096e+01 2.701836163349025544e+00 6.272240000000000038e+00 1.672264116549833091e+01 4.286920647824924657e+00 5.376559999999999562e+00 1.927848997845143586e+01 5.842187885687126325e+00 8.064759999999999707e+00 1.927849567740000225e+01 4.257092778119326404e+00 8.960440000000000182e+00 1.672263752903483436e+01 5.812360015981527184e+00 6.272240000000000038e+00 1.672264322798340075e+01 7.397443856617509361e+00 5.376559999999999562e+00 1.927848206168451739e+01 8.952701759067643650e+00 8.064759999999999707e+00 1.927849838372499036e+01 7.367616630751829376e+00 8.960440000000000182e+00 1.672263959151990420e+01 8.922883868614031044e+00 6.272240000000000038e+00 1.672264529046847770e+01 1.050796770925001233e+01 1.075296999999999947e+01 1.927848412416959434e+01 2.731664033054623353e+00 1.344116999999999962e+01 1.927849361491493241e+01 1.146568925486824098e+00 1.433685000000000009e+01 1.672263546654976096e+01 2.701836163349025544e+00 1.164864000000000033e+01 1.672264116549833091e+01 4.286920647824924657e+00 1.075296999999999947e+01 1.927848997845143586e+01 5.842187885687126325e+00 1.344116999999999962e+01 1.927849567740000225e+01 4.257092778119326404e+00 1.433685000000000009e+01 1.672263752903483436e+01 5.812360015981527184e+00 1.164864000000000033e+01 1.672264322798340075e+01 7.397443856617509361e+00 1.075296999999999947e+01 1.927848206168451739e+01 8.952701759067643650e+00 1.344116999999999962e+01 1.927849838372499036e+01 7.367616630751829376e+00 1.433685000000000009e+01 1.672263959151990420e+01 8.922883868614031044e+00 1.164864000000000033e+01 1.672264529046847770e+01 2.316838587439459252e-01 1.792089999999999961e+00 3.588829377275759125e+00 9.588330188024425382e+00 3.587779999999999969e+00 5.912592485417838439e+00 1.761837052055156283e+00 2.684590000000000032e+00 1.265090710149116671e+00 2.065891288570061712e-01 5.372799999999999798e+00 1.265073744268729650e+00 1.786940473514246674e+00 4.480299999999999727e+00 3.588825740812261689e+00 1.812026511829035513e+00 8.995699999999999807e-01 5.912601976163176509e+00 3.342197732124464249e+00 1.792089999999999961e+00 3.588832083600748124e+00 3.367283126599336818e+00 3.587779999999999969e+00 5.912598339699679073e+00 4.872360904687658589e+00 2.684590000000000032e+00 1.265092772634188956e+00 3.317103002237524301e+00 5.372799999999999798e+00 1.265076450593718427e+00 4.897464326146749869e+00 4.480299999999999727e+00 3.588827803297333752e+00 4.922550364461537598e+00 8.995699999999999807e-01 5.912604038648248128e+00 6.452721584756965889e+00 1.792089999999999961e+00 3.588834146085820187e+00 6.477806979231838902e+00 3.587779999999999969e+00 5.912600402184750692e+00 7.982884113480244181e+00 2.684590000000000032e+00 1.265084855867276703e+00 6.427626854870027273e+00 5.372799999999999798e+00 1.265078513078790490e+00 8.007987534939333685e+00 4.480299999999999727e+00 3.588819886530421943e+00 8.033073573254123190e+00 8.995699999999999807e-01 5.912596121881336764e+00 2.316838587439459252e-01 7.168499999999999872e+00 3.588829377275759125e+00 9.588330188024425382e+00 8.964190000000000325e+00 5.912592485417838439e+00 1.761837052055156283e+00 8.060999999999999943e+00 1.265090710149116671e+00 2.065891288570061712e-01 1.074920999999999971e+01 1.265073744268729650e+00 1.786940473514246674e+00 9.856709999999999638e+00 3.588825740812261689e+00 1.812026511829035513e+00 6.275970000000000049e+00 5.912601976163176509e+00 3.342197732124464249e+00 7.168499999999999872e+00 3.588832083600748124e+00 3.367283126599336818e+00 8.964190000000000325e+00 5.912598339699679073e+00 4.872360904687658589e+00 8.060999999999999943e+00 1.265092772634188956e+00 3.317103002237524301e+00 1.074920999999999971e+01 1.265076450593718427e+00 4.897464326146749869e+00 9.856709999999999638e+00 3.588827803297333752e+00 4.922550364461537598e+00 6.275970000000000049e+00 5.912604038648248128e+00 6.452721584756965889e+00 7.168499999999999872e+00 3.588834146085820187e+00 6.477806979231838902e+00 8.964190000000000325e+00 5.912600402184750692e+00 7.982884113480244181e+00 8.060999999999999943e+00 1.265084855867276703e+00 6.427626854870027273e+00 1.074920999999999971e+01 1.265078513078790490e+00 8.007987534939333685e+00 9.856709999999999638e+00 3.588819886530421943e+00 8.033073573254123190e+00 6.275970000000000049e+00 5.912596121881336764e+00 2.316838587439459252e-01 1.254490999999999978e+01 3.588829377275759125e+00 9.588330188024425382e+00 1.434059000000000061e+01 5.912592485417838439e+00 1.761837052055156283e+00 1.343740999999999985e+01 1.265090710149116671e+00 2.065891288570061712e-01 1.612562000000000140e+01 1.265073744268729650e+00 1.786940473514246674e+00 1.523310999999999993e+01 3.588825740812261689e+00 1.812026511829035513e+00 1.165238000000000085e+01 5.912601976163176509e+00 3.342197732124464249e+00 1.254490999999999978e+01 3.588832083600748124e+00 3.367283126599336818e+00 1.434059000000000061e+01 5.912598339699679073e+00 4.872360904687658589e+00 1.343740999999999985e+01 1.265092772634188956e+00 3.317103002237524301e+00 1.612562000000000140e+01 1.265076450593718427e+00 4.897464326146749869e+00 1.523310999999999993e+01 3.588827803297333752e+00 4.922550364461537598e+00 1.165238000000000085e+01 5.912604038648248128e+00 6.452721584756965889e+00 1.254490999999999978e+01 3.588834146085820187e+00 6.477806979231838902e+00 1.434059000000000061e+01 5.912600402184750692e+00 7.982884113480244181e+00 1.343740999999999985e+01 1.265084855867276703e+00 6.427626854870027273e+00 1.612562000000000140e+01 1.265078513078790490e+00 8.007987534939333685e+00 1.523310999999999993e+01 3.588819886530421943e+00 8.033073573254123190e+00 1.165238000000000085e+01 5.912596121881336764e+00 6.965910049407516569e-01 1.792089999999999961e+00 1.079469754619996813e+01 1.005323733422123134e+01 3.587779999999999969e+00 1.311846065434204789e+01 2.226744198251962015e+00 2.684590000000000032e+00 8.470958879073325676e+00 6.714962750538120417e-01 5.372799999999999798e+00 8.470941913192939765e+00 2.251846975871135914e+00 4.480299999999999727e+00 1.079468393048448682e+01 2.276933014185924531e+00 8.995699999999999807e-01 1.311846016583540120e+01 3.807104878321270203e+00 1.792089999999999961e+00 1.079470025252495624e+01 3.832190272796142771e+00 3.587779999999999969e+00 1.311846650862388763e+01 5.337267407044548051e+00 2.684590000000000032e+00 8.470950962306414311e+00 3.782010148434330254e+00 5.372799999999999798e+00 8.470944619517927876e+00 5.362370828503638442e+00 4.480299999999999727e+00 1.079468599296955844e+01 5.387456866818426171e+00 8.995699999999999807e-01 1.311846222832047282e+01 6.917628087113855351e+00 1.792089999999999961e+00 1.079469233575804488e+01 6.942713481588728364e+00 3.587779999999999969e+00 1.311845859185697627e+01 8.447791259677050135e+00 2.684590000000000032e+00 8.470953024791485930e+00 6.892534001066833227e+00 5.372799999999999798e+00 8.470946682002999495e+00 8.472894681136139639e+00 4.480299999999999727e+00 1.079468805545463006e+01 8.497980719450929143e+00 8.995699999999999807e-01 1.311846429080554444e+01 6.965910049407516569e-01 7.168499999999999872e+00 1.079469754619996813e+01 1.005323733422123134e+01 8.964190000000000325e+00 1.311846065434204789e+01 2.226744198251962015e+00 8.060999999999999943e+00 8.470958879073325676e+00 6.714962750538120417e-01 1.074920999999999971e+01 8.470941913192939765e+00 2.251846975871135914e+00 9.856709999999999638e+00 1.079468393048448682e+01 2.276933014185924531e+00 6.275970000000000049e+00 1.311846016583540120e+01 3.807104878321270203e+00 7.168499999999999872e+00 1.079470025252495624e+01 3.832190272796142771e+00 8.964190000000000325e+00 1.311846650862388763e+01 5.337267407044548051e+00 8.060999999999999943e+00 8.470950962306414311e+00 3.782010148434330254e+00 1.074920999999999971e+01 8.470944619517927876e+00 5.362370828503638442e+00 9.856709999999999638e+00 1.079468599296955844e+01 5.387456866818426171e+00 6.275970000000000049e+00 1.311846222832047282e+01 6.917628087113855351e+00 7.168499999999999872e+00 1.079469233575804488e+01 6.942713481588728364e+00 8.964190000000000325e+00 1.311845859185697627e+01 8.447791259677050135e+00 8.060999999999999943e+00 8.470953024791485930e+00 6.892534001066833227e+00 1.074920999999999971e+01 8.470946682002999495e+00 8.472894681136139639e+00 9.856709999999999638e+00 1.079468805545463006e+01 8.497980719450929143e+00 6.275970000000000049e+00 1.311846429080554444e+01 6.965910049407516569e-01 1.254490999999999978e+01 1.079469754619996813e+01 1.005323733422123134e+01 1.434059000000000061e+01 1.311846065434204789e+01 2.226744198251962015e+00 1.343740999999999985e+01 8.470958879073325676e+00 6.714962750538120417e-01 1.612562000000000140e+01 8.470941913192939765e+00 2.251846975871135914e+00 1.523310999999999993e+01 1.079468393048448682e+01 2.276933014185924531e+00 1.165238000000000085e+01 1.311846016583540120e+01 3.807104878321270203e+00 1.254490999999999978e+01 1.079470025252495624e+01 3.832190272796142771e+00 1.434059000000000061e+01 1.311846650862388763e+01 5.337267407044548051e+00 1.343740999999999985e+01 8.470950962306414311e+00 3.782010148434330254e+00 1.612562000000000140e+01 8.470944619517927876e+00 5.362370828503638442e+00 1.523310999999999993e+01 1.079468599296955844e+01 5.387456866818426171e+00 1.165238000000000085e+01 1.311846222832047282e+01 6.917628087113855351e+00 1.254490999999999978e+01 1.079469233575804488e+01 6.942713481588728364e+00 1.434059000000000061e+01 1.311845859185697627e+01 8.447791259677050135e+00 1.343740999999999985e+01 8.470953024791485930e+00 6.892534001066833227e+00 1.612562000000000140e+01 8.470946682002999495e+00 8.472894681136139639e+00 1.523310999999999993e+01 1.079468805545463006e+01 8.497980719450929143e+00 1.165238000000000085e+01 1.311846429080554444e+01 1.161498151137557500e+00 1.792089999999999961e+00 1.800056571512417847e+01 1.051814448041803729e+01 3.587779999999999969e+00 2.032432882326625645e+01 2.691650700608851032e+00 2.684590000000000032e+00 1.567681706874555125e+01 1.136403421250617773e+00 5.372799999999999798e+00 1.567681008211714833e+01 2.716754122067941868e+00 4.480299999999999727e+00 1.800055209940869716e+01 2.741840160382730485e+00 8.995699999999999807e-01 2.032432833475961331e+01 4.272011380678159220e+00 1.792089999999999961e+00 1.800055844219718182e+01 4.297096775153031345e+00 3.587779999999999969e+00 2.032432469829611321e+01 5.802174553241354005e+00 2.684590000000000032e+00 1.567681913123062287e+01 4.246917294631136208e+00 5.372799999999999798e+00 1.567681278844213644e+01 5.827277974700444396e+00 4.480299999999999727e+00 1.800055416189377056e+01 5.852364013015232125e+00 8.995699999999999807e-01 2.032433039724468316e+01 7.382535233310661305e+00 1.792089999999999961e+00 1.800056050468225521e+01 7.407620627785534317e+00 3.587779999999999969e+00 2.032432676078118661e+01 8.912698405873856089e+00 2.684590000000000032e+00 1.567682119371569449e+01 7.357440503423721800e+00 5.372799999999999798e+00 1.567680487167522507e+01 8.937801827332945592e+00 4.480299999999999727e+00 1.800055622437884040e+01 8.962887865647735097e+00 8.995699999999999807e-01 2.032433245972975655e+01 1.161498151137557500e+00 7.168499999999999872e+00 1.800056571512417847e+01 1.051814448041803729e+01 8.964190000000000325e+00 2.032432882326625645e+01 2.691650700608851032e+00 8.060999999999999943e+00 1.567681706874555125e+01 1.136403421250617773e+00 1.074920999999999971e+01 1.567681008211714833e+01 2.716754122067941868e+00 9.856709999999999638e+00 1.800055209940869716e+01 2.741840160382730485e+00 6.275970000000000049e+00 2.032432833475961331e+01 4.272011380678159220e+00 7.168499999999999872e+00 1.800055844219718182e+01 4.297096775153031345e+00 8.964190000000000325e+00 2.032432469829611321e+01 5.802174553241354005e+00 8.060999999999999943e+00 1.567681913123062287e+01 4.246917294631136208e+00 1.074920999999999971e+01 1.567681278844213644e+01 5.827277974700444396e+00 9.856709999999999638e+00 1.800055416189377056e+01 5.852364013015232125e+00 6.275970000000000049e+00 2.032433039724468316e+01 7.382535233310661305e+00 7.168499999999999872e+00 1.800056050468225521e+01 7.407620627785534317e+00 8.964190000000000325e+00 2.032432676078118661e+01 8.912698405873856089e+00 8.060999999999999943e+00 1.567682119371569449e+01 7.357440503423721800e+00 1.074920999999999971e+01 1.567680487167522507e+01 8.937801827332945592e+00 9.856709999999999638e+00 1.800055622437884040e+01 8.962887865647735097e+00 6.275970000000000049e+00 2.032433245972975655e+01 1.161498151137557500e+00 1.254490999999999978e+01 1.800056571512417847e+01 1.051814448041803729e+01 1.434059000000000061e+01 2.032432882326625645e+01 2.691650700608851032e+00 1.343740999999999985e+01 1.567681706874555125e+01 1.136403421250617773e+00 1.612562000000000140e+01 1.567681008211714833e+01 2.716754122067941868e+00 1.523310999999999993e+01 1.800055209940869716e+01 2.741840160382730485e+00 1.165238000000000085e+01 2.032432833475961331e+01 4.272011380678159220e+00 1.254490999999999978e+01 1.800055844219718182e+01 4.297096775153031345e+00 1.434059000000000061e+01 2.032432469829611321e+01 5.802174553241354005e+00 1.343740999999999985e+01 1.567681913123062287e+01 4.246917294631136208e+00 1.612562000000000140e+01 1.567681278844213644e+01 5.827277974700444396e+00 1.523310999999999993e+01 1.800055416189377056e+01 5.852364013015232125e+00 1.165238000000000085e+01 2.032433039724468316e+01 7.382535233310661305e+00 1.254490999999999978e+01 1.800056050468225521e+01 7.407620627785534317e+00 1.434059000000000061e+01 2.032432676078118661e+01 8.912698405873856089e+00 1.343740999999999985e+01 1.567682119371569449e+01 7.357440503423721800e+00 1.612562000000000140e+01 1.567680487167522507e+01 8.937801827332945592e+00 1.523310999999999993e+01 1.800055622437884040e+01 8.962887865647735097e+00 1.165238000000000085e+01 2.032433245972975655e+01