-2.823765111510000224e+03
-2.823732060240000010e+03
-2.823632670599999983e+03
-2.823467720829999962e+03
-2.823238311130000056e+03
