4.234487705097979456e-03 -2.815999999999999927e-03 5.234528396847651756e-04 4.550089016969582206e-03 -3.471999999999999826e-03 1.653902586393232971e-04 -3.947793311830599325e-03 2.272000000000000148e-03 -4.597792590641615112e-04 -3.924261362963355620e-03 2.528999999999999998e-03 -3.280209675508400052e-04 3.836122505647659130e-03 -2.850000000000000103e-03 6.082771750308590053e-04 3.241423258009273022e-03 -3.423999999999999960e-03 5.233901627242806527e-04 -3.387828614229849988e-03 2.152999999999999966e-03 -5.560317262580027550e-04 -3.675778628696461416e-03 2.929999999999999879e-03 -7.168259710824926656e-04 3.564172046471011934e-03 -2.727999999999999956e-03 7.731284648456809242e-04 3.729215528055784129e-03 -2.021999999999999926e-03 4.889126152060506913e-04 -3.375048418557188325e-03 2.389000000000000064e-03 -3.734757989410063001e-04 -4.136562641083743261e-03 2.158000000000000196e-03 -7.452177644086892911e-04 3.070777302255369400e-03 -1.810999999999999893e-03 9.949753742297072208e-05 3.268495526247095113e-03 -2.335999999999999969e-03 2.440676031404556494e-04 -3.790539599755583626e-03 2.919999999999999853e-03 -4.609062189695162606e-04 -3.755773417841721303e-03 2.707999999999999904e-03 -6.054444927766021965e-04 4.001841885783077868e-03 -3.328999999999999928e-03 2.568784171395815464e-04 4.330159276059301378e-03 -2.507000000000000114e-03 2.356960838825897318e-04 -4.247460732677283204e-03 2.282999999999999873e-03 -5.226158477931514739e-04 -3.333361731038098942e-03 2.454000000000000018e-03 -8.611716263618341295e-04 4.738922570180215989e-03 -1.889999999999999970e-03 3.586333417803420041e-04 3.810787858358587275e-03 -2.422000000000000108e-03 4.796414270960865220e-04 -3.711155364964270446e-03 2.573000000000000200e-03 5.505322058615042284e-05 -4.007089421154838571e-03 3.044999999999999964e-03 -4.779993419127067538e-04 3.148680491859545769e-03 -3.314999999999999804e-03 4.682469008793647210e-04 4.609385339672718469e-03 -1.810999999999999893e-03 3.078681380237579374e-04 -3.252916467330098892e-03 2.275999999999999811e-03 -1.089825424814757802e-03 -3.444420169146466051e-03 2.566000000000000138e-03 -2.838233577016344221e-04 4.029494303427279614e-03 -1.696999999999999941e-03 3.903750230830685397e-04 3.062086476930681901e-03 -1.905999999999999925e-03 5.550021691833687812e-04 -4.354109854234163544e-03 2.782999999999999884e-03 -4.516020120204938706e-04 -4.066320399661275432e-03 2.262000000000000122e-03 -6.031921168723137279e-05 4.661373892615615876e-03 -3.144000000000000093e-03 2.283559354199844640e-04 3.844009144540894238e-03 -3.214999999999999976e-03 4.975396433310431358e-04 -3.502139057381507131e-03 2.724999999999999992e-03 -3.863198451580874887e-04 -3.262347041749852784e-03 2.322999999999999978e-03 -2.574913186613974996e-04 4.369367740018985195e-03 -2.448000000000000089e-03 3.575685222976450234e-05 4.626027561295374332e-03 -3.187999999999999862e-03 -3.992495630024163060e-05 -3.862485749806327841e-03 1.991000000000000148e-03 1.479892987450386174e-04 -3.832065514002051809e-03 2.769000000000000194e-03 -7.944115052157172915e-05 3.658748609471549913e-03 -2.484999999999999796e-03 1.888269384648190506e-04 3.105318700318018561e-03 -2.853000000000000067e-03 2.776432413281662158e-04 -3.333360610798888519e-03 2.122000000000000188e-03 -2.088181945484150759e-04 -3.786032720339202722e-03 3.066999999999999848e-03 -3.910514550809581673e-04 3.615741329969599828e-03 -2.534999999999999927e-03 2.366952360096569500e-04 3.801065662238639099e-03 -1.668999999999999911e-03 2.046969256005933295e-04 -3.558183054973007402e-03 2.520000000000000104e-03 6.522535782159638151e-05 -4.118470686081831048e-03 2.260999999999999989e-03 -4.337363345220767016e-04 3.143723137880423402e-03 -2.239999999999999804e-03 5.156644571378401565e-04 3.529534792574646942e-03 -2.639999999999999986e-03 1.012855936451499900e-03 -4.017745158481532235e-03 3.233000000000000197e-03 -7.518815342181292940e-04 -3.524575944943243722e-03 2.288999999999999802e-03 -1.904689169587501477e-04 4.137206374310919976e-03 -3.559000000000000098e-03 6.930681181248242928e-04 4.211214199057699593e-03 -2.798999999999999839e-03 9.237818842426051731e-04 -3.931601191357614496e-03 2.364999999999999915e-03 -4.728488893033211383e-04 -3.180582839745444996e-03 2.099000000000000171e-03 -1.009315510391473655e-03 4.521246215633401358e-03 -2.125999999999999852e-03 4.328020998339151496e-04 3.605247912912533121e-03 -2.614000000000000004e-03 7.574513096165485680e-04 -3.772512402158405102e-03 2.667999999999999799e-03 -3.678738582191178486e-04 -4.407740332326267468e-03 2.769999999999999893e-03 -4.751980248110544962e-04 2.916711477955603697e-03 -3.151000000000000155e-03 6.625852053600636300e-04 4.571141675382936129e-03 -1.913999999999999903e-03 -3.638383675879926731e-05 -3.287328884030526251e-03 2.227999999999999946e-03 -1.141717481787248110e-03 -3.547689637915940261e-03 2.861999999999999961e-03 -4.555307157852953991e-04 4.085636077262569735e-03 -1.910000000000000022e-03 6.392768134153742647e-04 3.168735065040317964e-03 -1.995999999999999944e-03 1.733438420709877649e-04 -4.274726686337335449e-03 2.876000000000000084e-03 -5.569315551442738507e-04 -3.840757566255398239e-03 2.472999999999999938e-03 -3.384188488425373276e-04 4.814765312017016755e-03 -3.154000000000000119e-03 6.022557514857639158e-04 3.806892600190638597e-03 -3.615000000000000158e-03 4.037347280254180481e-04 -3.490454083048525561e-03 2.639999999999999986e-03 -6.245664849556668884e-04 -3.301202380632792689e-03 2.436999999999999930e-03 -6.267558073958164359e-04 4.349120174897398369e-03 -2.622999999999999898e-03 4.208594828448345261e-04 4.580509786221101214e-03 -2.942999999999999870e-03 2.486043007124362687e-04 -3.935431212018312280e-03 2.599999999999999881e-03 -5.072647703202444550e-05 -3.943028576379221592e-03 2.638000000000000154e-03 -1.995460995781375821e-04 3.737585286937747733e-03 -2.626999999999999995e-03 5.254495435971700884e-04 3.005236585876550504e-03 -2.867999999999999890e-03 3.572520999365201740e-04 -3.222655617835612149e-03 2.586000000000000191e-03 -4.033494376252043617e-04 -3.574086914463429215e-03 3.072000000000000078e-03 -7.714866997306471692e-04 3.600644164112673604e-03 -2.471999999999999805e-03 5.152451876935307522e-04 3.944735152243711990e-03 -1.559000000000000056e-03 4.589744858407412411e-04 -3.517783780563548714e-03 2.841999999999999908e-03 -2.871067278975292236e-04 -4.205097613160304303e-03 2.147000000000000037e-03 -7.668500921259031704e-04 3.266661089259592036e-03 -2.033000000000000085e-03 5.107390017585656953e-04 3.469111456621431187e-03 -2.749000000000000141e-03 6.820598958580780923e-04 -3.725867987247123789e-03 2.824999999999999820e-03 -6.855360979606148165e-04 -3.497439559437381159e-03 2.528999999999999998e-03 -6.241157970140287330e-04 3.851091063555433115e-03 -3.474000000000000091e-03 4.209247203520861242e-04 4.138976213927864078e-03 -2.779999999999999919e-03 3.011409977724171312e-04 -4.060430678059342470e-03 2.014999999999999864e-03 -7.922169580831686739e-04 -3.313854555148269560e-03 2.230000000000000211e-03 -1.242218172191609724e-03 4.681171303242808931e-03 -2.036000000000000049e-03 1.469123197557817946e-04 3.765269603181796085e-03 -2.733000000000000186e-03 4.885906419030133915e-04 -3.932244924584792078e-03 2.456999999999999983e-03 -4.206992430194563025e-04 -4.247782705980320504e-03 2.752999999999999805e-03 -5.586699229191637549e-04 3.354736149375592714e-03 -3.118999999999999811e-03 5.711938095538343467e-04 4.603945079083764623e-03 -2.052000000000000005e-03 3.322690307271873415e-04 -3.390598246110551519e-03 2.224999999999999981e-03 -1.251295941602964361e-03 -3.479411935082407734e-03 2.674000000000000161e-03 -2.825678431918517966e-04 3.914057327128061918e-03 -1.708000000000000100e-03 6.513487851797475532e-04 2.939244808143023566e-03 -2.112000000000000162e-03 3.905700421234073244e-04 -4.233682931874560053e-03 2.674000000000000161e-03 -5.265109992716516434e-04 -3.915441022829202478e-03 2.328000000000000208e-03 -3.466274610388094110e-04 4.602592855224677502e-03 -3.181999999999999933e-03 2.181192541587029709e-04 4.044624008020743927e-03 -3.396999999999999846e-03 3.142429533692188610e-04 -3.483340158744690270e-03 2.599999999999999881e-03 -8.094080173043229727e-04 -3.367226483723961567e-03 2.442999999999999859e-03 -6.715979506430640655e-04 -7.271827784817604372e-05 -8.210000000000000067e-04 8.765004575394102224e-04 -5.112666680722183568e-03 -6.930000000000000396e-04 -3.262595349079196617e-03 4.590041924360072426e-03 2.590000000000000071e-04 2.322293076383100813e-03 4.792652371513116821e-03 9.600000000000000243e-05 1.983545372768089586e-03 -3.869367475342269528e-04 -6.310000000000000504e-04 4.328105283003567472e-04 -3.788226630425643553e-03 -1.129000000000000012e-03 -3.251845783018311384e-03 1.800473521547495538e-04 -1.196000000000000014e-03 1.346200932618182204e-03 -3.467732508600754673e-03 -8.700000000000000051e-04 -3.751517192922553586e-03 5.219443610057349948e-03 -5.410000000000000312e-04 2.634417279291853108e-03 3.825148262425008810e-03 1.230000000000000082e-04 2.317530101307625854e-03 1.326411583225529025e-05 -5.130000000000000011e-04 7.957971244175166513e-04 -4.979201973378544373e-03 -9.229999999999999923e-04 -3.119892259085753697e-03 -3.509131307005058714e-04 -1.077999999999999965e-03 1.441584189252216206e-03 -4.333062050190722610e-03 -4.360000000000000269e-04 -3.480240978610098668e-03 5.068659875680095808e-03 7.399999999999999623e-05 2.378594556596527482e-03 5.029612238337757661e-03 3.570000000000000040e-04 2.503367478410441303e-03 -7.600159469934650975e-05 -2.329999999999999986e-04 9.809285180904653290e-04 -4.417950236081235639e-03 -1.126999999999999964e-03 -3.568959611919103516e-03 -4.339691200819374272e-04 9.009999999999999997e-04 -2.185127063017364959e-04 -5.496578340853307612e-03 1.278000000000000056e-03 -3.342042420865167299e-03 4.152725743571993380e-03 -5.310000000000000050e-04 2.579983895041679329e-03 5.414587167863987686e-03 -3.600000000000000091e-05 3.142908175814659085e-03 -6.361286125697222880e-04 2.910000000000000260e-04 2.825427193719920352e-04 -4.303222283861171324e-03 6.030000000000000204e-04 -4.306877288207854905e-03 -5.042739851201660664e-04 5.100000000000000366e-04 1.207176371994845724e-04 -4.136890588995903971e-03 1.271999999999999910e-03 -4.260490142539602974e-03 5.004891026017743542e-03 5.000000000000000240e-05 3.424871065848617696e-03 4.193094933102231407e-03 5.710000000000000015e-04 3.454198587515256401e-03 -1.812031166659416436e-04 9.340000000000000429e-04 4.686389127148418644e-04 -4.075629087567139187e-03 2.910000000000000260e-04 -3.233303193419485595e-03 7.867844324792404699e-04 9.150000000000000147e-04 4.683153390700751494e-04 -3.639439173202999207e-03 9.759999999999999796e-04 -3.244409885411438793e-03 6.003910218836738116e-03 -3.409999999999999945e-04 3.066807311219241303e-03 4.718229704934146646e-03 6.300000000000000261e-04 3.874259858537761839e-03 3.921216592902271704e-04 1.820000000000000057e-04 8.124392926954475012e-04 -4.899851397562981006e-03 8.859999999999999603e-04 -3.458704133313530299e-03 1.611502505163473181e-04 1.969999999999999909e-04 8.203265183806497315e-04 -4.937932368170068129e-03 -6.350000000000000392e-04 -2.790866698245966608e-03 4.390233274411198955e-03 7.150000000000000322e-04 3.341271733375291309e-03 5.266733785295333974e-03 -7.299999999999999903e-05 3.445054460357439580e-03 3.470548922259387623e-04 -5.500000000000000331e-04 1.294340720900815332e-03 -4.881469261168430891e-03 1.036999999999999944e-03 -2.878684222395316850e-03 -1.690331552788801870e-04 2.700000000000000035e-04 1.464922452697229325e-03 -4.790207913618910879e-03 -3.460000000000000076e-04 -3.188202180587480089e-03 4.145677483533204317e-03 4.290000000000000193e-04 3.511370131804079572e-03 4.645766509195302200e-03 -4.569999999999999952e-04 3.325787356708076892e-03 -3.869668857581721935e-04 -3.989999999999999949e-04 1.628292857359087522e-03 -5.064444137861391117e-03 1.134000000000000025e-03 -3.136438358151071373e-03 -1.815230095247306441e-04 -1.299999999999999920e-05 1.644098353813750520e-03 -4.012405341372584852e-03 -4.020000000000000136e-04 -3.029951876932164816e-03 5.182683231433124829e-03 7.529999999999999801e-04 3.742082244235406079e-03 4.466365877572290796e-03 -5.339999999999999695e-04 3.667045929308479849e-03 -3.986198014571333656e-04 -6.340000000000000149e-04 1.789377336920940130e-03 -4.254869639398944914e-03 7.249999999999999500e-04 -3.402113218533605720e-03 -8.821086960293514963e-06 3.170000000000000075e-04 -4.162957943876431882e-04 -4.816895424903761339e-03 1.348999999999999939e-03 -3.803761094698405055e-03 4.582286027204961892e-03 -6.790000000000000245e-04 3.584411076436708546e-03 4.031142096496160600e-03 -3.820000000000000153e-04 3.910572643214358692e-03 -7.220261912290788656e-05 -8.090000000000000403e-04 1.226192799600369721e-03 -3.848812980129901785e-03 6.509999999999999945e-04 -4.781117928265687933e-03 1.699044462829355114e-04 -2.000000000000000164e-05 -2.244047217268145577e-04 -3.624278850283069956e-03 1.479000000000000063e-03 -4.236444241978267952e-03 4.825971967386457478e-03 -8.919999999999999978e-04 3.012535073654759154e-03 4.536414060159458909e-03 -4.060000000000000024e-04 3.820855071157184483e-03 -1.089975635831965365e-04 -1.499999999999999869e-04 9.509908154829504546e-04 -4.556888116163438501e-03 1.002000000000000069e-03 -4.107130835116947452e-03 -4.176159062679857649e-04 -1.039999999999999936e-04 -1.514264007099453920e-04 -4.534224951098207029e-03 1.286000000000000034e-03 -3.755861165277340954e-03 4.386853301555447733e-03 -7.309999999999999875e-04 3.397606232427775874e-03 4.092948488013824562e-03 3.310000000000000225e-04 3.563873970059174869e-03 -4.418211397943846834e-04 -2.079999999999999872e-04 1.306156223593024461e-03 -4.170530771209449150e-03 3.869999999999999742e-04 -4.517858241069003765e-03 -6.277257281592517378e-04 4.199999999999999768e-05 8.632064702068313047e-04 -5.101493577639043715e-03 -3.499999999999999964e-04 -1.644958442425699992e-03 4.056925618006243690e-03 5.199999999999999680e-05 2.990002596982928220e-03 4.324946679936674324e-03 3.139999999999999888e-04 1.614893252108243410e-03 -5.840104914726346576e-04 -4.989999999999999861e-04 6.709931041746193883e-04 -3.560150260798158883e-03 2.759999999999999867e-04 -1.999932779005034363e-03 -1.065819102948280565e-04 -5.029999999999999749e-04 1.718427565071599123e-03 -3.690266413783375825e-03 -9.600000000000000243e-04 -1.749034818207567026e-03 5.869125773025825853e-03 6.019999999999999961e-04 2.981307877493365611e-03 4.815057360475005072e-03 6.689999999999999983e-04 1.958049952206396098e-03 1.948861285294361081e-04 -2.829999999999999942e-04 5.666280939971191262e-04 -4.868172446565463898e-03 3.519999999999999908e-04 -1.787275868605858959e-03 3.317630807417442924e-04 8.799999999999999771e-05 7.000923212382399253e-04 -3.931248973141183121e-03 -6.120000000000000223e-04 -1.570148244968095014e-03 4.475183977228023961e-03 4.949999999999999973e-04 2.343732572193672498e-03 4.910182174282075665e-03 7.820000000000000345e-04 1.956923098990490453e-03 -2.061190813026718123e-04 -4.859999999999999954e-04 4.552152505386243228e-04 -4.986186062804568060e-03 5.559999999999999621e-04 -2.311765893660835351e-03 -5.044035532743560736e-04 -6.799999999999999946e-05 -3.472449502069163219e-04 -4.952387187762649114e-03 -4.440000000000000045e-04 -3.372142070329238375e-03 4.554470062362475993e-03 9.740000000000000394e-04 1.941793874499543561e-03 5.075163619043055255e-03 -4.000000000000000327e-05 3.038545086047234143e-03 2.966078742969655555e-04 5.349999999999999938e-04 -7.456438619777107151e-04 -4.416887020030851527e-03 -1.499999999999999869e-04 -3.039930435434828535e-03 -6.534628413044743374e-06 2.860000000000000129e-04 1.006295117324109236e-04 -4.099130844865714156e-03 1.379999999999999933e-04 -4.529479364857565485e-03 4.875833448091894742e-03 6.549999999999999833e-04 1.502191128474767443e-03 5.062222596753047921e-03 -4.070000000000000267e-04 2.931155468569148718e-03 -1.986206667694878408e-04 4.600000000000000139e-04 -7.798300011746431932e-04 -4.143873824906337856e-03 -2.369999999999999874e-04 -2.955332590971126820e-03 3.248111032944654334e-05 -3.409999999999999945e-04 1.462120975561403871e-04 -3.267375341121728401e-03 -4.189999999999999931e-04 -4.031998931079926879e-03 4.561520082777165662e-03 4.739999999999999747e-04 2.035534459158230402e-03 4.393676991121920651e-03 -8.189999999999999581e-04 2.913161769913547028e-03 -5.683349899299559166e-04 8.500000000000000611e-05 -2.509289525370016205e-04 -4.023704758581731628e-03 -1.129999999999999955e-04 -3.220619973819750185e-03 -1.013380023643209763e-04 6.909999999999999910e-04 -1.728340512653940759e-04 -4.994523763052510779e-03 6.459999999999999814e-04 -2.425464982287681322e-03 4.542625381651357874e-03 1.379000000000000017e-03 2.907560255949452610e-03 4.414085329516129544e-03 1.028999999999999967e-03 2.421828380325593503e-03 -3.243905535767725051e-04 3.289999999999999739e-04 -2.596531701138174984e-04 -4.467554874301438855e-03 2.030000000000000012e-04 -2.458461804687120215e-03 1.625623774102548627e-05 3.849999999999999798e-04 -1.673939507106133717e-04 -4.533162108460893347e-03 5.280000000000000405e-04 -3.444283132730872107e-03 4.824458330118056373e-03 9.349999999999999587e-04 2.631842666451489603e-03 4.483070402742360752e-03 1.211999999999999970e-03 2.108737243957967827e-03 -3.040153407110707750e-04 4.879999999999999898e-04 -1.295113382145490679e-03 -5.624471885835694539e-03 3.229999999999999907e-04 -2.264572587806330372e-03 -3.312478487742706026e-04 1.589999999999999888e-04 -5.989155722490591138e-04 -4.370338567642733686e-03 3.730000000000000134e-04 -3.001848397933255461e-03 4.012984743952823646e-03 9.430000000000000448e-04 3.007868754583864056e-03 3.837381114151452131e-03 1.472000000000000001e-03 2.445006990737195844e-03 -3.428412881962060552e-05 5.599999999999999509e-04 -3.294762487814252984e-04 -4.287220274713887495e-03 4.760000000000000234e-04 -2.552267093405815625e-03 -1.276073644440733760e-04 1.749999999999999982e-04 -9.838253709574871879e-04 -4.841519554461400261e-03 -8.059999999999999673e-04 -2.585648352689879324e-03 4.687484081764477575e-03 -1.289999999999999914e-03 2.077511488104130666e-03 4.253129457903428307e-03 -1.523999999999999964e-03 2.318977967621531355e-03 -4.853136197293119966e-04 -8.050000000000000515e-04 -4.763455177993939523e-06 -4.496366683898085637e-03 -1.219999999999999974e-04 -2.889501106407702143e-03 -5.319282164849938651e-04 -3.100000000000000135e-05 -1.068970239299061719e-03 -4.953384419479641039e-03 -7.259999999999999743e-04 -2.968239847595935399e-03 4.945753449487704650e-03 -7.159999999999999481e-04 1.995713360400351577e-03 4.642803405271266233e-03 -1.652999999999999955e-03 2.441142670964056762e-03 -2.668016069089915914e-04 -4.809999999999999823e-04 -8.425704140015716909e-04 -5.420542553730966877e-03 -2.519999999999999996e-04 -3.157555133832466200e-03 2.961879113712401418e-04 2.530000000000000239e-04 -1.606402726951601610e-03 -3.833423392401916381e-03 -8.739999999999999939e-04 -3.486422535291123365e-03 4.647856721773552940e-03 -8.090000000000000403e-04 2.037980837462511664e-03 4.244855821578802021e-03 -1.082999999999999978e-03 2.019890109389258816e-03 1.706120833992565210e-04 -7.889999999999999878e-04 -5.551364850180225087e-04 -4.005967208929947163e-03 1.129999999999999955e-04 -3.085481602761229111e-03 -4.210531682670654377e-05 -3.800000000000000209e-04 4.035481907962451152e-04 -4.518641837982163151e-03 -4.420000000000000101e-04 -2.240720852769746176e-03 3.775221704246492331e-03 -2.059999999999999928e-04 3.423038282547568884e-03 4.374846887366671405e-03 -6.399999999999999710e-05 3.910443288439066460e-03 1.711611343766530576e-04 2.900000000000000017e-05 4.940049251565183791e-04 -4.435847225387532129e-03 1.359999999999999989e-04 -2.821255995655433044e-03 -2.224387961750465324e-04 -4.539999999999999765e-04 1.149706911328359253e-03 -5.223306169454587124e-03 -1.579999999999999916e-04 -2.414712748990580343e-03 4.762683943889688826e-03 -7.829999999999999504e-04 2.870314730236975167e-03 4.548582047791721768e-03 -2.180000000000000134e-04 3.667753993182595353e-03 -2.836360203015968087e-04 -9.500000000000000523e-05 6.138898913870586790e-05 -5.847493498653336119e-03 2.530000000000000239e-04 -3.080907298703899639e-03 -1.233885326313579017e-04 -7.360000000000000006e-04 6.006887725836337926e-05 -4.019519105642247597e-03 -6.999999999999999387e-05 -2.751916997181591291e-03 4.039091359005155327e-03 -6.849999999999999535e-04 2.775706215291864377e-03 4.102091068174636493e-03 -8.170000000000000179e-04 3.736643797367079477e-03 -3.509797551705896509e-04 -2.730000000000000222e-04 1.358794004269703543e-04 -3.548178039032376645e-03 1.949999999999999965e-04 -3.678185640139491376e-03