-4.702360289800000146e+02
-4.702360311499999739e+02
-4.702360354599999823e+02
-4.702360420300000214e+02
-4.702360510199999908e+02
-4.702360625599999935e+02
