-1.301251413586563923e-08 1.720349999997347890e-01 -2.650001718417146221e-04 1.512605152926226321e-13 -1.999999999999993980e-06 1.997752953105698084e-15 -9.869875670142442762e-07 -1.720339999998114211e-01 2.640001718462356667e-04 0.000000000000000000e+00 0.000000000000000000e+00 0.000000000000000000e+00 1.409000205312336022e-03 -2.705999893318092840e-03 1.189999949254833797e-04 -1.408999794763286188e-03 -2.705000106444158982e-03 1.190000104794372430e-04 -1.512000213544994077e-03 2.814999885530173381e-03 -1.169999944658157894e-04 1.511999786449477572e-03 2.815000114235073885e-03 -1.180000111578587575e-04 -1.630000000055194069e-04 -1.232873087234404040e-11 -9.999991002635564973e-07 7.563025764631131604e-14 -9.999999999999969901e-07 9.988764765528490418e-16 1.620000000701099410e-04 -9.999877488971361966e-07 -1.000000893217711520e-06 -1.103971081111733581e-14 -1.997753788041876720e-15 -1.999999999999999909e-06 1.513000213469363735e-03 -2.813999885454543208e-03 1.169999944592970645e-04 1.406999794541915257e-03 2.708000106293897199e-03 -1.180000104713941597e-04 -1.407000205306816083e-03 2.705999893470352122e-03 -1.179999949365230814e-04 -1.512999786454997378e-03 -2.815000114311702693e-03 1.170000111633786232e-04 -3.996740771964009022e-06 -3.995099995728377401e-02 4.306700003992819381e-02 -4.265999889672001354e-03 1.499969753164198255e-05 2.019300002353272006e-02 2.996844590887426692e-06 4.144599999645600524e-02 -3.775000041415994042e-03 4.266000110587983910e-03 1.200034281499344237e-05 2.019899997644031275e-02 1.570003046300268189e-04 -2.575999968255384114e-03 1.989300000170649008e-02 -1.559996955803034610e-04 -2.572999991924658156e-03 1.989600000343120720e-02 -1.670000843560775366e-04 2.612000007852709107e-03 2.050599999831274889e-02 1.669999160866632922e-04 2.606000033111217137e-03 2.050399999647511268e-02 2.713000112174576185e-03 -9.999774652780885089e-06 2.018499998503462192e-02 3.999785245823753902e-06 4.329000020687589177e-03 2.040799999565378470e-02 -2.711999887889998597e-03 -9.000184944930836954e-06 2.018700001497883770e-02 -3.999556402999262376e-06 -4.408999980370918378e-03 1.995400000442612565e-02 1.720600104034983660e-02 -1.314499869034714725e-02 8.367999918155597655e-03 1.666099919797501064e-02 1.291700129172409887e-02 3.168399989513119575e-02 -1.665600080201385183e-02 1.291699877195280448e-02 3.168600007903622090e-02 -1.721099895963350626e-02 -1.314500129331072804e-02 8.371000108132464756e-03 -1.666199919827201364e-02 -1.291300129179873309e-02 -3.168299989512968207e-02 -1.720600104051213733e-02 1.314699869034514912e-02 -8.369999918157596322e-03 1.720899895962246448e-02 1.314500129315747043e-02 -8.373000108121425242e-03 1.665600080193822136e-02 -1.291599877195280521e-02 -3.168600007903722010e-02 2.145052060396791846e-10 -4.326000020389062818e-03 -2.041199999567885892e-02 -2.715000112331356422e-03 1.199977450052148950e-05 -2.018599998502557807e-02 -1.000443532410175206e-06 4.407999979990770076e-03 -1.995600000439752900e-02 2.713999888192519458e-03 5.000185096191363524e-06 -2.018700001498588067e-02 1.579996956835330005e-04 2.571999992080913240e-03 -1.989100000344124625e-02 -1.560003044732464442e-04 2.573999968332013090e-03 -1.989200000171001056e-02 -1.709999158708122623e-04 -2.609000033415736098e-03 -2.050599999645003751e-02 1.670000842103368851e-04 -2.610000007851710074e-03 -2.050499999831474629e-02 4.264999889493141690e-03 -1.299969761226662950e-05 -2.019800002352920010e-02 3.996740718413172399e-06 3.995199995728777181e-02 -4.306300003992918901e-02 -4.267000110587984042e-03 -1.200034289062370133e-05 -2.019899997643479286e-02 -4.996844660997822565e-06 -4.144499999660627293e-02 3.776000041426034754e-03
-1.300546948219372344e-08 1.719419999997368054e-01 -2.630001717488191014e-04 5.519855405558667905e-15 9.988768940209383598e-16 9.999999999999999547e-07 1.300548052190453403e-08 -1.719419999997348070e-01 2.650001717488190958e-04 0.000000000000000000e+00 0.000000000000000000e+00 0.000000000000000000e+00 1.407000205079925311e-03 -2.702999893470352157e-03 1.179999949335264550e-04 -1.406999794844436286e-03 -2.704000106293897102e-03 1.180000104673986443e-04 -1.510000213091212485e-03 2.808999885681433967e-03 -1.169999944708622491e-04 1.509999786833148699e-03 2.810000114084812341e-03 -1.170000111418246705e-04 -1.620000000701099410e-04 9.999877488971361966e-07 1.000000893217711520e-06 5.519855405558667905e-15 9.988768940209383598e-16 9.999999999999999547e-07 1.630000000055194069e-04 1.232873087234404040e-11 9.999991002635564973e-07 5.519855405558667905e-15 9.988768940209383598e-16 9.999999999999999547e-07 1.510000213096732375e-03 -2.808999885680435200e-03 1.179999944708622463e-04 1.405999794925586301e-03 2.703000106219265695e-03 -1.170000104608799222e-04 -1.407000205074405421e-03 2.702999893471350924e-03 -1.169999949335264578e-04 -1.509999786827628809e-03 -2.810000114083813574e-03 1.180000111418246677e-04 3.256382262166757444e-09 -3.991599995701720915e-02 4.303100003987115479e-02 -4.259999889500308903e-03 1.199969797543476807e-05 2.018300002350259872e-02 9.968472064750352000e-07 4.141199999631273859e-02 -3.767000041370992518e-03 4.260000110510706386e-03 1.200034234722762199e-05 2.018499997647343197e-02 1.580003041580379673e-04 -2.570999968196734618e-03 1.987600000169597453e-02 -1.569996958474809330e-04 -2.570999992021265074e-03 1.987500000343472850e-02 -1.660000841363543469e-04 2.608000007913355810e-03 2.049099999831122468e-02 1.659999158636446699e-04 2.608000033022601655e-03 2.049099999647863157e-02 2.710000112080738956e-03 -9.999774896652566835e-06 2.016799998505117847e-02 -2.141507818911014179e-10 4.320000020371083348e-03 2.039399999568485347e-02 -2.708999887983836331e-03 -9.000184735020970027e-06 2.017000001496227837e-02 4.430769809143596311e-10 -4.402999980080383492e-03 1.994200000439805623e-02 1.719000103944779562e-02 -1.313299869155623231e-02 8.368999918231928223e-03 1.664299919882020889e-02 1.290400129033778508e-02 3.165899989524354613e-02 -1.664500080129783718e-02 1.290599877276376282e-02 3.166500007898649660e-02 -1.719099896039532824e-02 -1.313500129179912164e-02 8.370000108012079151e-03 -1.664699919868550468e-02 -1.290600129064330311e-02 -3.166199989521947117e-02 -1.719100103958801778e-02 1.313499869148260051e-02 -8.366999918228406469e-03 1.718799896056866575e-02 1.313300129157622675e-02 -8.366000107993520549e-03 1.664600080131439785e-02 -1.290599877268513648e-02 -3.166200007899201696e-02 2.142153724379366117e-10 -4.321000020373081014e-03 -2.039599999568385627e-02 -2.709000112080738824e-03 9.999774972282824101e-06 -2.016799998505669836e-02 -4.429571918134688806e-10 4.401999980088374363e-03 -1.993400000439705597e-02 2.708999887913726180e-03 1.000018473601984608e-05 -2.016900001496327657e-02 1.569996957718506757e-04 2.571999992021265207e-03 -1.987500000343572770e-02 -1.560003042336682302e-04 2.571999968347995266e-03 -1.987600000170801351e-02 -1.669999158250056804e-04 -2.608000033091239893e-03 -2.048399999647311162e-02 1.660000840938432134e-04 -2.607000007907363075e-03 -2.048499999831222482e-02 4.258999889494788881e-03 -1.199969805206390249e-05 -2.018400002349707983e-02 9.967432230269757846e-07 3.992099995708984356e-02 -4.303400003988167022e-02 -4.261000110472067288e-03 -1.200034241586574086e-05 -2.017799997646791202e-02 -9.968474924364996265e-07 -4.140799999630974393e-02 3.770000041366996981e-03
-1.012991429853545376e-06 1.717559999996561559e-01 -2.680001715575082801e-04 -1.000000156780367740e-06 1.999999923370859559e-06 -9.999999964778974114e-07 1.012991570074350009e-06 -1.717579999996581563e-01 2.660001715595060367e-04 -9.218982386298732133e-14 9.999999970033663704e-07 -3.000000000998876385e-06 1.406000204928664664e-03 -2.700999893545982366e-03 1.179999949370485535e-04 -1.404999794931106275e-03 -2.703000106144634856e-03 1.160000104553600620e-04 -1.511000212962031446e-03 2.806999885601808593e-03 -1.209999944633446375e-04 1.510999786903258982e-03 2.809000114159443482e-03 -1.180000111463456552e-04 -1.620000000110392456e-04 -1.225409949159726444e-11 -1.999999105783411824e-06 -8.666996845742864869e-14 9.999999980022431025e-07 -2.000000000998876218e-06 1.619999999999995467e-04 1.225210173780922182e-11 -8.942165879388429930e-13 -1.000000081150110051e-06 9.999999233708625694e-07 -9.999999954790208911e-07 1.510000213091212485e-03 -2.808999885681433967e-03 1.169999944708622491e-04 1.406999794990176911e-03 2.702000106292898503e-03 -1.190000104654009042e-04 -1.409000204928664846e-03 2.700999893319091377e-03 -1.179999949204889916e-04 -1.506999786989929140e-03 -2.808000113858920722e-03 1.160000111232673605e-04 3.003252326404223786e-06 -3.986499995682628306e-02 4.299500003980365193e-02 -4.255999889631138615e-03 1.299969826796702447e-05 2.017300002347952037e-02 -2.003148291053048702e-06 4.135399999610683136e-02 -3.746000041296498103e-03 4.258000110444467440e-03 1.200034218398058329e-05 2.017299997648447016e-02 1.570003037357278611e-04 -2.565999968280355866e-03 1.986800000169650082e-02 -1.569996960429002972e-04 -2.568999992029256246e-03 1.986700000343272904e-02 -1.680000838189214666e-04 2.603000007751108194e-03 2.047999999832726334e-02 1.679999159597066302e-04 2.606000033163873367e-03 2.048099999646959060e-02 2.708000112101170264e-03 -1.099977505790184674e-05 2.015799998506321786e-02 -1.000213973569813616e-06 4.317000020286462271e-03 2.038499999569336890e-02 -2.706999887968924816e-03 -1.000018459474809802e-05 2.015900001495223720e-02 1.000442870521842029e-06 -4.400999980014743893e-03 1.993200000439053488e-02 1.716600103789819864e-02 -1.311199869336436737e-02 8.375999918343429371e-03 1.662399920020033936e-02 1.288400128887683647e-02 3.163499989536840140e-02 -1.662700079979404291e-02 1.288399877409613682e-02 3.163600007890911281e-02 -1.716599896218285598e-02 -1.311100128990336927e-02 8.375000107850109551e-03 -1.662199920013023025e-02 -1.288500128872657399e-02 -3.163599989537843604e-02 -1.716500103775245659e-02 1.310999869343899837e-02 -8.376999918346951859e-03 1.716399896209066384e-02 1.311200128974911346e-02 -8.378000107840068503e-03 1.662700079970185277e-02 -1.288299877409913516e-02 -3.163900007891011501e-02 -9.997859673594887926e-07 -4.318000020440719219e-03 -2.038799999568133292e-02 -2.708000111966469420e-03 8.999775054905222559e-06 -2.016099998506121899e-02 -4.428650019896059473e-10 4.400999980091371833e-03 -1.993100000439605723e-02 2.706999887946845255e-03 1.000018459075259109e-05 -2.016300001495223773e-02 1.569996960964511296e-04 2.567999992025260612e-03 -1.987100000343173037e-02 -1.590003039090677678e-04 2.567999968125099682e-03 -1.987200000168745997e-02 -1.659999160353368931e-04 -2.605000033012613153e-03 -2.048099999648162958e-02 1.660000838835120035e-04 -2.604000007904366375e-03 -2.048199999831522289e-02 4.255999889549988251e-03 -1.199969826896590611e-05 -2.017400002348052057e-02 -2.003252261813679216e-06 3.986399995689991066e-02 -4.299700003980817115e-02 -4.257000110427908504e-03 -1.200034210535369456e-05 -2.016999997648999052e-02 1.003147966452599469e-06 -4.134999999618645117e-02 3.742000041298022394e-03
9.870309307511526327e-07 1.714609999998164269e-01 -2.590001712738794178e-04 1.000000081150110051e-06 -9.999999233708625694e-07 9.999999954790208911e-07 -9.870310212932584923e-07 -1.714589999998054337e-01 2.700001712718816632e-04 2.759927702779334110e-14 4.994384470104692588e-15 5.000000000000000409e-06 1.404000204491442959e-03 -2.694999893694246217e-03 1.209999949420950048e-04 -1.402999795584179091e-03 -2.694000105988379745e-03 1.210000104353304700e-04 -1.506000212393980619e-03 2.799999885986951837e-03 -1.139999944839517897e-04 1.504999787530380455e-03 2.801000113709657680e-03 -1.140000111052355119e-04 -1.590000000480304974e-04 9.999879797834166145e-07 5.000000876658145222e-06 -3.000000048030972433e-06 9.999997781036086431e-07 5.000000015560690217e-06 1.580000001788593332e-04 -1.999988045424902279e-06 4.999999129860587277e-06 9.999999409293054180e-07 1.000000078626885299e-06 2.999999993481267972e-06 1.505000212432619716e-03 -2.799999886055590075e-03 1.209999944894716331e-04 1.401999795552707822e-03 2.695000105920739974e-03 -1.130000104308094777e-04 -1.402000204452803897e-03 2.694999893852498968e-03 -1.139999949531347233e-04 -1.504999787648521846e-03 -2.799000113703664378e-03 1.200000111032377577e-04 2.003246372622277218e-06 -3.978999995695285674e-02 4.294400003973426055e-02 -4.249999889420807801e-03 9.999698718751951762e-06 2.017000002344939910e-02 -2.003141964639666689e-06 4.127399999615676690e-02 -3.696000041216587935e-03 4.251000110357797124e-03 1.300034165257102193e-05 2.017099997652211166e-02 1.580003035899871797e-04 -2.563999968203726793e-03 1.986900000168898353e-02 -1.579996962587513674e-04 -2.565999992102888354e-03 1.986900000343525680e-02 -1.670000836952602156e-04 2.601000007821743700e-03 2.047499999832373685e-02 1.679999161589981142e-04 2.603000033158879133e-03 2.047599999647259014e-02 2.704000111949909652e-03 -8.999775360422883086e-06 2.015799998508329902e-02 -1.000213595418525384e-06 4.312000020286462475e-03 2.038499999569836491e-02 -2.703999887898813834e-03 -1.100018436885619889e-05 2.015800001493667573e-02 1.000442330070327675e-06 -4.393999980016741365e-03 1.993000000438354194e-02 1.713600103644243727e-02 -1.309099869560930232e-02 8.399999918488047779e-03 1.658999920158598859e-02 1.286400128628243343e-02 3.161199989557605255e-02 -1.659400079850058621e-02 1.286499877656596506e-02 3.161000007874593259e-02 -1.713199896350391452e-02 -1.309200128731096389e-02 8.396000107643455598e-03 -1.659399920141264861e-02 -1.286600128658096052e-02 -3.160799989555197059e-02 -1.713600103640379804e-02 1.309099869561629499e-02 -8.392999918488047717e-03 1.713199896369381470e-02 1.309000128731795630e-02 -8.389000107641457135e-03 1.659300079860381513e-02 -1.286599877663660227e-02 -3.160500007873941891e-02 -9.997865172029957332e-07 -4.310000020430730487e-03 -2.037799999568932346e-02 -2.705000111922310768e-03 8.999775289787011599e-06 -2.015299998507778106e-02 -1.000442291431339858e-06 4.393999980023733168e-03 -1.992300000438354188e-02 2.704999887850782943e-03 1.200018444948083913e-05 -2.015300001494319676e-02 1.549996963454213319e-04 2.564999991877995635e-03 -1.986700000341769592e-02 -1.590003035568680531e-04 2.563999968134089789e-03 -1.986300000168346111e-02 -1.669999162716196447e-04 -2.601000033076256591e-03 -2.046899999648010837e-02 1.700000836306697031e-04 -2.600000007592855478e-03 -2.047299999834129719e-02 4.248999889745408258e-03 -1.399969879038668752e-05 -2.016600002343988188e-02 -2.003246339503144561e-06 3.978999995695885195e-02 -4.293800003973425455e-02 -4.250000110394789102e-03 -1.200034156994863077e-05 -2.016399997652863069e-02 1.003141986719091399e-06 -4.127399999622840404e-02 3.700000041222107922e-03
-1.293580849504606428e-08 1.710209999997377994e-01 -2.620001708288539097e-04 -1.999999999999993980e-06 -1.512605152815953159e-13 1.103971096220793756e-14 1.012936138615350679e-06 -1.710249999996571735e-01 2.670001708273295345e-04 3.080408859908039494e-13 -3.999999999001110805e-06 1.000000003995505824e-06 1.397000203853281716e-03 -2.686999894229651509e-03 1.149999949727429911e-04 -1.396999796432671663e-03 -2.683000105537594777e-03 1.180000103912236839e-04 -1.497000211421826944e-03 2.786999886665626845e-03 -1.159999945206450887e-04 1.497999788275643403e-03 2.791000113178248535e-03 -1.160000110566077513e-04 -1.610000001402203651e-04 1.999987825526268031e-06 2.000000886698979582e-06 1.999999865299044719e-06 2.000000154257139977e-06 2.999999986962536291e-06 1.599999999409288569e-04 1.000012103837850182e-06 2.999999115824246427e-06 -1.000000156780367740e-06 1.999999923370859559e-06 -9.999999964778974114e-07 1.501000211502976972e-03 -2.787999886362106747e-03 1.169999944995645365e-04 1.397999796292450844e-03 2.685000105615222617e-03 -1.160000103987413034e-04 -1.395000203626390895e-03 2.683999894380912059e-03 -1.149999949807860772e-04 -1.497999788653794689e-03 -2.786000113178248305e-03 1.160000110516133740e-04 -9.967617352214456802e-07 -3.968899995726465207e-02 4.285900003964993044e-02 -4.236999889562675231e-03 1.099969968995877432e-05 2.015800002337663974e-02 1.996866610249729134e-06 4.116499999651922898e-02 -3.636000041129789587e-03 4.237000110361670638e-03 1.200034058076202000e-05 2.015799997660038326e-02 1.550003033614487000e-04 -2.561999968444601990e-03 1.985500000170354468e-02 -1.539996966385504082e-04 -2.561999991814351701e-03 1.985500000340918031e-02 -1.640000833187566539e-04 2.595000008034650720e-03 2.046099999831317226e-02 1.659999167513527898e-04 2.594000032991636718e-03 2.045999999649261714e-02 2.698000111861592349e-03 -8.999775830186459473e-06 2.014199998511641970e-02 1.999786851195437766e-06 4.305000020498370161e-03 2.036999999568879505e-02 -2.697999888191943141e-03 -8.000183927061184477e-06 2.014600001490056067e-02 -9.995585736206207197e-07 -4.382999980180986126e-03 1.991700000438359486e-02 1.708800103435403894e-02 -1.306199869922057728e-02 8.418999918724034276e-03 1.654899920336857025e-02 1.283700128313464660e-02 3.156499989582933763e-02 -1.654700079653914288e-02 1.283599878007863487e-02 3.156800007851547074e-02 -1.708699896554815439e-02 -1.306300128388063371e-02 8.423000107366093378e-03 -1.654899920335753047e-02 -1.283700128313264820e-02 -3.156299989582933563e-02 -1.708300103435404088e-02 1.306199869959872792e-02 -8.418999918751631992e-03 1.708699896572149490e-02 1.306100128388463025e-02 -8.419000107364096180e-03 1.654700079670144361e-02 -1.283799878007663674e-02 -3.156600007851347034e-02 2.129384733494178743e-10 -4.302000020344113815e-03 -2.036699999570283290e-02 -2.698000112018372754e-03 1.099977582918757672e-05 -2.014299998511841910e-02 -1.000441361788826316e-06 4.381999980027728378e-03 -1.991900000437155441e-02 2.697999888197463031e-03 8.000183928060061633e-06 -2.014500001490055967e-02 1.579996968008505834e-04 2.559999992118870433e-03 -1.985300000342925947e-02 -1.540003032046683524e-04 2.559999968521231399e-03 -1.985400000170706517e-02 -1.689999164598714242e-04 -2.598000033220524904e-03 -2.046199999647206266e-02 1.640000835566871788e-04 -2.598000008032652717e-03 -2.045899999831017613e-02 4.237999889643824861e-03 -1.199969961332963710e-05 -2.015700002338116290e-02 1.996761242800908933e-06 3.969499995733328374e-02 -4.286600003966144212e-02 -4.239000110496370446e-03 -1.000034072902591035e-05 -2.015499997659134235e-02 -3.996867134141671563e-06 -4.115799999666949066e-02 3.637000041133837697e-03
-3.012896917983041159e-06 1.705069999995139085e-01 -2.590001702988718540e-04 -4.999998763964304075e-06 -1.700000038714113146e-05 -8.999999955419822734e-06 -3.987105349276949429e-06 -1.704760000000293263e-01 2.730001703065456351e-04 1.999999826660057114e-06 2.000000147265001582e-06 -4.000000013037464028e-06 1.385000203690981563e-03 -2.684999895139211865e-03 1.129999950369834933e-04 -1.409999797200014006e-03 -2.673000106522785847e-03 1.160000104529930454e-04 -1.486000210503224134e-03 2.774999887499557134e-03 -1.139999945693769869e-04 1.501999788917676801e-03 2.782000113473777434e-03 -1.230000110696973046e-04 -1.710000000645900799e-04 9.999870692236943654e-07 2.000000942896410883e-06 1.999998546465532625e-06 1.900000014826383159e-05 -3.000000030018364071e-06 1.490000005514907817e-04 -6.999988727096083372e-06 3.999999184533668273e-06 -5.000000276569457002e-06 2.999999612858811303e-06 -8.999999975397352293e-06 1.506000209741401724e-03 -2.764999885987950729e-03 1.129999944489910971e-04 1.383999796270371594e-03 2.685000104552403514e-03 -1.200000103214633322e-04 -1.402000203430971538e-03 2.681999893859491214e-03 -1.069999949401493212e-04 -1.497999788941403818e-03 -2.783000113189235646e-03 1.050000110486167513e-04 -1.996772047382357045e-06 -3.955899995742717667e-02 4.277200003952558865e-02 -4.225999888442555884e-03 -6.000299508074649309e-06 2.012800002333290164e-02 3.996878800479650169e-06 4.100899999674140206e-02 -3.565000040985004913e-03 4.225000110040941226e-03 1.500033965621801108e-05 2.014099997666362815e-02 1.550003020945183189e-04 -2.546999968468574745e-03 1.983100000168856389e-02 -1.569996981047722378e-04 -2.543999992060220778e-03 1.983600000340775965e-02 -1.610000834473610649e-04 2.594000008224582425e-03 2.042399999829761295e-02 1.729999166795946597e-04 2.594000033508062596e-03 2.044699999645397878e-02 2.695000110731010212e-03 5.000223929937327383e-06 2.012899998511899491e-02 -6.000212702190567458e-06 4.298000019878344367e-03 2.035499999573995092e-02 -2.701999888366930433e-03 -7.000184247562001749e-06 2.012800001492164037e-02 1.200044045645012487e-05 -4.371999979222765051e-03 1.989200000430085130e-02 1.704200103146295484e-02 -1.302099870266161009e-02 8.456999918936992239e-03 1.647999920690721223e-02 1.278700127787220711e-02 3.152099989626015036e-02 -1.649800079357572127e-02 1.279199878371859063e-02 3.150200007828894699e-02 -1.701899896912707766e-02 -1.301400127871480371e-02 8.446000106941799548e-03 -1.648599920586329981e-02 -1.280000127831500308e-02 -3.150999989621404429e-02 -1.702100103067353057e-02 1.301099870425583872e-02 -8.450999919042922331e-03 1.701999896990933486e-02 1.300300127878144425e-02 -8.455000106936332027e-03 1.648800079381200490e-02 -1.279599878448688111e-02 -3.151400007822975635e-02 -9.997877184718268538e-07 -4.292000020401763420e-03 -2.034899999570730089e-02 -2.696000112022244825e-03 1.199977599343348978e-05 -2.012999998513045549e-02 3.999560185583161529e-06 4.362999980425856170e-03 -1.989900000438017680e-02 2.686999888830104381e-03 1.831011216352416109e-10 -2.014000001483185268e-02 1.569996964337390258e-04 2.564999992045238156e-03 -1.985100000342873705e-02 -1.640003031163506520e-04 2.559999967780910834e-03 -1.983800000165186761e-02 -1.739999171057769127e-04 -2.588000033578698872e-03 -2.044199999645445257e-02 1.790000829753721657e-04 -2.589000006880219206e-03 -2.044099999840196316e-02 4.233999889669777528e-03 -1.299969992484055438e-05 -2.016600002335808273e-02 9.967730841265453608e-07 3.954499995734755274e-02 -4.277600003950609436e-02 -4.245000110214280920e-03 -1.300034117281867738e-05 -2.014499997655522928e-02 3.003121317661712541e-06 -4.101099999621798942e-02 3.559000040948363721e-03
