2.460609999999999964e+00 3.146329999999999849e+00 3.078390000000000182e+00 6.052100000000000257e-01 3.887659999999999894e+00 1.458730000000000082e+00 2.018190000000000150e+00 1.101650000000000018e+00 1.458760000000000057e+00 5.848290000000000433e+00 3.146339999999999915e+00 3.078390000000000182e+00 3.992859999999999854e+00 3.887640000000000207e+00 1.458730000000000082e+00 5.405870000000000175e+00 1.101660000000000084e+00 1.458769999999999900e+00 9.235960000000000392e+00 3.146329999999999849e+00 3.078399999999999803e+00 7.380550000000000388e+00 3.887640000000000207e+00 1.458730000000000082e+00 8.793540000000000134e+00 1.101669999999999927e+00 1.458760000000000057e+00 1.047639999999999905e+00 5.932339999999999947e+00 3.078390000000000182e+00 3.022320000000000118e+00 8.718349999999999156e+00 3.078390000000000182e+00 2.579909999999999926e+00 6.673659999999999926e+00 1.458760000000000057e+00 4.435290000000000177e+00 5.932360000000000078e+00 3.078390000000000182e+00 6.409980000000000011e+00 8.718339999999999534e+00 3.078390000000000182e+00 5.967570000000000263e+00 6.673670000000000435e+00 1.458749999999999991e+00 7.822960000000000136e+00 5.932360000000000078e+00 3.078399999999999803e+00 9.797660000000000480e+00 8.718339999999999534e+00 3.078390000000000182e+00 9.355240000000000222e+00 6.673670000000000435e+00 1.458749999999999991e+00 1.324410000000000087e+00 4.423149999999999693e+00 6.013740000000000308e+00 2.737420000000000186e+00 1.637159999999999949e+00 6.013760000000000439e+00 4.712080000000000268e+00 4.423149999999999693e+00 6.013740000000000308e+00 6.125070000000000014e+00 1.637150000000000105e+00 6.013760000000000439e+00 8.099750000000000227e+00 4.423160000000000203e+00 6.013749999999999929e+00 9.512740000000000862e+00 1.637150000000000105e+00 6.013770000000000060e+00 3.299119999999999830e+00 7.209159999999999791e+00 6.013770000000000060e+00 6.686779999999999724e+00 7.209179999999999922e+00 6.013770000000000060e+00 1.007443999999999917e+01 7.209170000000000300e+00 6.013770000000000060e+00 3.179819999999999869e+00 3.681830000000000158e+00 7.633399999999999963e+00 6.567490000000000272e+00 3.681839999999999780e+00 7.633399999999999963e+00 9.955159999999999343e+00 3.681830000000000158e+00 7.633409999999999584e+00 1.766839999999999966e+00 6.467859999999999943e+00 7.633399999999999963e+00 3.741540000000000088e+00 9.253849999999999909e+00 7.633409999999999584e+00 5.154510000000000147e+00 6.467850000000000321e+00 7.633399999999999963e+00 7.129190000000000360e+00 9.253859999999999530e+00 7.633409999999999584e+00 8.542180000000000106e+00 6.467850000000000321e+00 7.633409999999999584e+00 1.051685999999999943e+01 9.253840000000000288e+00 7.633409999999999584e+00 3.899039999999999839e+00 4.217340000000000089e+00 1.218842000000000070e+01 2.043610000000000149e+00 4.958649999999999558e+00 1.056874999999999964e+01 3.456620000000000026e+00 2.172660000000000036e+00 1.056878000000000029e+01 7.286699999999999733e+00 4.217340000000000089e+00 1.218840999999999930e+01 5.431280000000000108e+00 4.958649999999999558e+00 1.056875999999999927e+01 6.844289999999999985e+00 2.172660000000000036e+00 1.056878000000000029e+01 1.067439000000000071e+01 4.217349999999999710e+00 1.218842000000000070e+01 8.818960000000000576e+00 4.958649999999999558e+00 1.056874999999999964e+01 1.023196000000000083e+01 2.172670000000000101e+00 1.056878999999999991e+01 2.486060000000000159e+00 7.003359999999999808e+00 1.218840999999999930e+01 4.460729999999999862e+00 9.789360000000000284e+00 1.218842000000000070e+01 4.018320000000000114e+00 7.744679999999999787e+00 1.056878999999999991e+01 5.873730000000000118e+00 7.003350000000000186e+00 1.218842000000000070e+01 7.848419999999999952e+00 9.789350000000000662e+00 1.218842000000000070e+01 7.405999999999999694e+00 7.744670000000000165e+00 1.056878000000000029e+01 9.261400000000000077e+00 7.003359999999999808e+00 1.218840999999999930e+01 1.123607999999999940e+01 9.789360000000000284e+00 1.218839999999999968e+01 1.079367000000000054e+01 7.744659999999999656e+00 1.056878000000000029e+01 2.171030000000000015e+00 1.707638000000000034e+01 3.078399999999999803e+00 5.558709999999999596e+00 1.707637000000000072e+01 3.078390000000000182e+00 8.946369999999999933e+00 1.707637000000000072e+01 3.078380000000000116e+00 1.166889999999999983e+00 9.459659999999999513e+00 1.458739999999999926e+00 4.554560000000000386e+00 9.459659999999999513e+00 1.458739999999999926e+00 7.942239999999999966e+00 9.459659999999999513e+00 1.458730000000000082e+00 1.609339999999999993e+00 1.150436000000000014e+01 3.078399999999999803e+00 3.584020000000000206e+00 1.429035999999999973e+01 3.078399999999999803e+00 1.728590000000000071e+00 1.503167000000000009e+01 1.458739999999999926e+00 3.141599999999999948e+00 1.224568000000000012e+01 1.458760000000000057e+00 4.996990000000000265e+00 1.150436000000000014e+01 3.078399999999999803e+00 6.971689999999999721e+00 1.429035999999999973e+01 3.078399999999999803e+00 5.116259999999999586e+00 1.503167000000000009e+01 1.458720000000000017e+00 6.529259999999999842e+00 1.224567000000000050e+01 1.458749999999999991e+00 8.384660000000000224e+00 1.150436000000000014e+01 3.078399999999999803e+00 1.035936000000000057e+01 1.429036999999999935e+01 3.078399999999999803e+00 8.503930000000000433e+00 1.503167999999999971e+01 1.458739999999999926e+00 9.916940000000000310e+00 1.224568000000000012e+01 1.458760000000000057e+00 1.886109999999999953e+00 9.995160000000000267e+00 6.013740000000000308e+00 5.273780000000000356e+00 9.995150000000000645e+00 6.013749999999999929e+00 8.661440000000000694e+00 9.995160000000000267e+00 6.013749999999999929e+00 2.447810000000000041e+00 1.556717000000000084e+01 6.013749999999999929e+00 3.860809999999999853e+00 1.278118000000000087e+01 6.013779999999999681e+00 5.835490000000000066e+00 1.556718000000000046e+01 6.013749999999999929e+00 7.248490000000000322e+00 1.278118000000000087e+01 6.013770000000000060e+00 9.223150000000000404e+00 1.556718000000000046e+01 6.013740000000000308e+00 1.063615000000000066e+01 1.278118000000000087e+01 6.013779999999999681e+00 2.890239999999999920e+00 1.761187999999999931e+01 7.633399999999999963e+00 6.277910000000000323e+00 1.761187999999999931e+01 7.633409999999999584e+00 9.665580000000000283e+00 1.761187999999999931e+01 7.633409999999999584e+00 2.328539999999999832e+00 1.203987000000000052e+01 7.633409999999999584e+00 4.303230000000000111e+00 1.482586000000000048e+01 7.633399999999999963e+00 5.716219999999999857e+00 1.203987000000000052e+01 7.633399999999999963e+00 7.690900000000000070e+00 1.482586000000000048e+01 7.633399999999999963e+00 9.103880000000000194e+00 1.203987000000000052e+01 7.633399999999999963e+00 1.107856999999999914e+01 1.482587000000000010e+01 7.633390000000000342e+00 3.609449999999999825e+00 1.814736999999999867e+01 1.218842000000000070e+01 6.997130000000000294e+00 1.814737999999999829e+01 1.218840999999999930e+01 1.038479000000000063e+01 1.814739000000000146e+01 1.218842000000000070e+01 2.605329999999999924e+00 1.053065999999999924e+01 1.056874999999999964e+01 5.993000000000000327e+00 1.053065999999999924e+01 1.056874999999999964e+01 9.380649999999999267e+00 1.053065999999999924e+01 1.056875999999999927e+01 3.047750000000000181e+00 1.257535999999999987e+01 1.218840999999999930e+01 5.022450000000000081e+00 1.536137000000000086e+01 1.218839999999999968e+01 3.167019999999999946e+00 1.610266999999999982e+01 1.056875999999999927e+01 4.580020000000000202e+00 1.331667999999999985e+01 1.056878000000000029e+01 6.435419999999999696e+00 1.257536999999999949e+01 1.218842000000000070e+01 8.410099999999999909e+00 1.536135999999999946e+01 1.218840999999999930e+01 6.554689999999999905e+00 1.610266999999999982e+01 1.056874999999999964e+01 7.967679999999999652e+00 1.331667999999999985e+01 1.056878000000000029e+01 9.823090000000000543e+00 1.257535999999999987e+01 1.218842000000000070e+01 1.179777999999999949e+01 1.536135999999999946e+01 1.218842000000000070e+01 9.942349999999999355e+00 1.610267999999999944e+01 1.056874999999999964e+01 1.135535999999999923e+01 1.331668999999999947e+01 1.056878000000000029e+01 5.455200000000000049e-01 2.124000000000000110e+00 2.268559999999999910e+00 1.112467000000000006e+01 4.154099999999999682e+00 3.744460000000000122e+00 2.104179999999999939e+00 2.879890000000000061e+00 7.927899999999999947e-01 8.185769999999999769e+00 6.201360000000000205e+00 5.347780000000000200e+00 2.520230000000000192e+00 4.910009999999999764e+00 2.268600000000000172e+00 2.374649999999999928e+00 1.368109999999999937e+00 3.744510000000000005e+00 3.933180000000000121e+00 2.124000000000000110e+00 2.268559999999999910e+00 4.349330000000000140e+00 4.154099999999999682e+00 3.744470000000000187e+00 5.491859999999999964e+00 2.879879999999999995e+00 7.927800000000000402e-01 8.601779999999999760e+00 8.231519999999999726e+00 6.823570000000000135e+00 5.907899999999999707e+00 4.910009999999999764e+00 2.268609999999999793e+00 5.762310000000000265e+00 1.368109999999999937e+00 3.744510000000000005e+00 7.320859999999999701e+00 2.124000000000000110e+00 2.268559999999999910e+00 7.736989999999999590e+00 4.154099999999999682e+00 3.744470000000000187e+00 8.879530000000000811e+00 2.879879999999999995e+00 7.927800000000000402e-01 4.798090000000000188e+00 6.201349999999999696e+00 5.347769999999999690e+00 9.295569999999999666e+00 4.910009999999999764e+00 2.268619999999999859e+00 9.149990000000000734e+00 1.368120000000000003e+00 3.744499999999999940e+00 1.107210000000000027e+00 7.695999999999999730e+00 2.268559999999999910e+00 6.912099999999999911e-01 5.665840000000000209e+00 7.927600000000000202e-01 2.936350000000000016e+00 6.940129999999999910e+00 3.744510000000000005e+00 4.494880000000000209e+00 7.696019999999999861e+00 2.268559999999999910e+00 4.078879999999999839e+00 5.665860000000000340e+00 7.927600000000000202e-01 6.324019999999999975e+00 6.940129999999999910e+00 3.744510000000000005e+00 7.882559999999999789e+00 7.696010000000000240e+00 2.268559999999999910e+00 7.466549999999999798e+00 5.665860000000000340e+00 7.927600000000000202e-01 9.711700000000000443e+00 6.940120000000000289e+00 3.744510000000000005e+00 1.264739999999999975e+00 2.659499999999999975e+00 6.823559999999999626e+00 2.823389999999999844e+00 3.415389999999999926e+00 5.347780000000000200e+00 5.214109999999999800e+00 8.231510000000000105e+00 6.823570000000000135e+00 3.239430000000000032e+00 5.445520000000000138e+00 6.823620000000000019e+00 4.652389999999999581e+00 2.659499999999999975e+00 6.823579999999999757e+00 6.211059999999999803e+00 3.415379999999999860e+00 5.347780000000000200e+00 1.410420000000000007e+00 6.201360000000000205e+00 5.347789999999999822e+00 6.627110000000000056e+00 5.445520000000000138e+00 6.823620000000000019e+00 8.040079999999999671e+00 2.659510000000000041e+00 6.823579999999999757e+00 9.598739999999999384e+00 3.415379999999999860e+00 5.347780000000000200e+00 1.826419999999999932e+00 8.231519999999999726e+00 6.823559999999999626e+00 1.001478000000000002e+01 5.445529999999999760e+00 6.823629999999999640e+00 1.295099999999999862e-01 9.382999999999999674e-02 7.927600000000000202e-01 7.624060000000000059e+00 6.293499999999999650e-01 5.347789999999999822e+00 4.236399999999999721e+00 6.293400000000000105e-01 5.347769999999999690e+00 8.487299999999999844e-01 6.293299999999999450e-01 5.347780000000000200e+00 6.904860000000000220e+00 9.384000000000000674e-02 7.927699999999999747e-01 3.517180000000000195e+00 9.382999999999999674e-02 7.927800000000000402e-01 1.184388000000000041e+01 4.689600000000000435e+00 8.299480000000000857e+00 3.093859999999999832e+00 1.903629999999999933e+00 8.299509999999999721e+00 5.068539999999999601e+00 4.689600000000000435e+00 8.299469999999999459e+00 6.481539999999999857e+00 1.903610000000000024e+00 8.299500000000000099e+00 8.456200000000000827e+00 4.689610000000000056e+00 8.299480000000000857e+00 9.869210000000000704e+00 1.903629999999999933e+00 8.299519999999999342e+00 3.655569999999999986e+00 7.475640000000000285e+00 8.299519999999999342e+00 7.043230000000000324e+00 7.475629999999999775e+00 8.299509999999999721e+00 1.043091000000000079e+01 7.475640000000000285e+00 8.299519999999999342e+00 1.983950000000000102e+00 3.195009999999999906e+00 1.137859000000000087e+01 1.256310000000000038e+01 5.225100000000000300e+00 1.285446999999999917e+01 3.542600000000000193e+00 3.950899999999999856e+00 9.902799999999999159e+00 1.115010999999999974e+01 8.011139999999999262e+00 1.285450999999999944e+01 3.958650000000000002e+00 5.981020000000000003e+00 1.137861999999999973e+01 3.813079999999999803e+00 2.439119999999999955e+00 1.285452000000000083e+01 5.371620000000000061e+00 3.194999999999999840e+00 1.137856999999999985e+01 5.787749999999999950e+00 5.225109999999999921e+00 1.285449000000000019e+01 6.930279999999999774e+00 3.950880000000000170e+00 9.902799999999999159e+00 8.904980000000000118e+00 6.736860000000000070e+00 9.902799999999999159e+00 7.346320000000000405e+00 5.981020000000000003e+00 1.137862999999999936e+01 7.200739999999999696e+00 2.439119999999999955e+00 1.285453000000000046e+01 8.759280000000000399e+00 3.194999999999999840e+00 1.137857999999999947e+01 9.175409999999999400e+00 5.225100000000000300e+00 1.285446999999999917e+01 1.031795999999999935e+01 3.950880000000000170e+00 9.902799999999999159e+00 9.320980000000000487e+00 8.767010000000000858e+00 1.137857999999999947e+01 1.073398000000000074e+01 5.981020000000000003e+00 1.137864000000000075e+01 1.058840999999999966e+01 2.439119999999999955e+00 1.285453000000000046e+01 2.545650000000000190e+00 8.767020000000000479e+00 1.137856999999999985e+01 2.129630000000000134e+00 6.736860000000000070e+00 9.902779999999999916e+00 4.374769999999999825e+00 8.011129999999999640e+00 1.285452000000000083e+01 5.933309999999999640e+00 8.767010000000000858e+00 1.137857999999999947e+01 5.517310000000000159e+00 6.736849999999999561e+00 9.902789999999999537e+00 7.762450000000000294e+00 8.011139999999999262e+00 1.285450999999999944e+01 1.567930000000000046e+00 1.164849999999999941e+00 9.902789999999999537e+00 8.343280000000000030e+00 1.164840000000000098e+00 9.902779999999999916e+00 4.955610000000000070e+00 1.164849999999999941e+00 9.902799999999999159e+00 1.168637999999999977e+01 9.726110000000000255e+00 3.744460000000000122e+00 1.113818000000000019e+01 1.658953999999999951e+01 6.823620000000000019e+00 3.081920000000000215e+00 1.048202999999999996e+01 2.268609999999999793e+00 4.911019999999999719e+00 9.726119999999999877e+00 3.744450000000000056e+00 8.747469999999999857e+00 1.177336000000000027e+01 5.347769999999999690e+00 6.469599999999999795e+00 1.048202000000000034e+01 2.268619999999999859e+00 8.298690000000000566e+00 9.726100000000000634e+00 3.744470000000000187e+00 1.072212999999999994e+01 1.455941999999999936e+01 5.347789999999999822e+00 9.857269999999999754e+00 1.048202000000000034e+01 2.268600000000000172e+00 1.668909999999999894e+00 1.326801999999999992e+01 2.268549999999999844e+00 1.224806000000000061e+01 1.529813000000000045e+01 3.744460000000000122e+00 3.227590000000000181e+00 1.402391000000000076e+01 7.927699999999999747e-01 1.252909999999999968e+00 1.123785999999999952e+01 7.927800000000000402e-01 3.643629999999999924e+00 1.605404000000000053e+01 2.268609999999999793e+00 3.498040000000000038e+00 1.251214000000000048e+01 3.744489999999999874e+00 5.056580000000000297e+00 1.326801999999999992e+01 2.268559999999999910e+00 5.472730000000000317e+00 1.529812000000000083e+01 3.744470000000000187e+00 6.615260000000000140e+00 1.402391000000000076e+01 7.927800000000000402e-01 4.640579999999999927e+00 1.123785999999999952e+01 7.927699999999999747e-01 7.031290000000000262e+00 1.605403000000000091e+01 2.268619999999999859e+00 6.885710000000000441e+00 1.251213000000000086e+01 3.744499999999999940e+00 8.444259999999999877e+00 1.326801999999999992e+01 2.268559999999999910e+00 8.860390000000000654e+00 1.529813000000000045e+01 3.744460000000000122e+00 1.000292999999999921e+01 1.402392000000000039e+01 7.927800000000000402e-01 8.028249999999999886e+00 1.123785999999999952e+01 7.927800000000000402e-01 1.041896999999999984e+01 1.605403000000000091e+01 2.268609999999999793e+00 1.027337999999999951e+01 1.251213000000000086e+01 3.744499999999999940e+00 9.163479999999999848e+00 1.380353000000000030e+01 6.823570000000000135e+00 3.801140000000000185e+00 1.101751999999999931e+01 6.823620000000000019e+00 7.750499999999999723e+00 1.658953999999999951e+01 6.823620000000000019e+00 7.188799999999999635e+00 1.101753000000000071e+01 6.823620000000000019e+00 5.359790000000000276e+00 1.177336999999999989e+01 5.347780000000000200e+00 1.057648999999999972e+01 1.101753000000000071e+01 6.823620000000000019e+00 2.388129999999999864e+00 1.380353000000000030e+01 6.823570000000000135e+00 3.946800000000000086e+00 1.455941999999999936e+01 5.347789999999999822e+00 1.972129999999999939e+00 1.177336999999999989e+01 5.347780000000000200e+00 4.362840000000000273e+00 1.658954999999999913e+01 6.823610000000000397e+00 5.775800000000000267e+00 1.380353999999999992e+01 6.823570000000000135e+00 7.334469999999999601e+00 1.455940999999999974e+01 5.347789999999999822e+00 2.665880000000000027e+00 8.451900000000000190e+00 7.927699999999999747e-01 1.016043999999999947e+01 8.987410000000000565e+00 5.347800000000000331e+00 6.772770000000000401e+00 8.987399999999999167e+00 5.347789999999999822e+00 3.385099999999999998e+00 8.987399999999999167e+00 5.347780000000000200e+00 9.441219999999999501e+00 8.451909999999999812e+00 7.927800000000000402e-01 6.053550000000000431e+00 8.451890000000000569e+00 7.927800000000000402e-01 1.240557000000000087e+01 1.026162000000000063e+01 8.299469999999999459e+00 5.630239999999999689e+00 1.026160999999999923e+01 8.299469999999999459e+00 9.017920000000000158e+00 1.026160999999999923e+01 8.299469999999999459e+00 1.296726999999999919e+01 1.583362999999999943e+01 8.299469999999999459e+00 4.217259999999999565e+00 1.304763999999999946e+01 8.299509999999999721e+00 6.191939999999999777e+00 1.583361999999999981e+01 8.299469999999999459e+00 7.604930000000000412e+00 1.304763999999999946e+01 8.299519999999999342e+00 9.579599999999999227e+00 1.583362999999999943e+01 8.299469999999999459e+00 1.099258999999999986e+01 1.304763999999999946e+01 8.299509999999999721e+00 1.312480000000000047e+01 1.079711999999999961e+01 1.285448000000000057e+01 1.171180999999999983e+01 1.358314000000000021e+01 1.285450999999999944e+01 4.520340000000000025e+00 1.155302999999999969e+01 1.137862999999999936e+01 6.349459999999999660e+00 1.079710999999999999e+01 1.285449000000000019e+01 1.185740000000000016e+01 1.712503999999999849e+01 1.137862999999999936e+01 7.908019999999999605e+00 1.155302999999999969e+01 1.137861999999999973e+01 9.737120000000000886e+00 1.079711999999999961e+01 1.285448000000000057e+01 9.466680000000000206e+00 1.230885999999999925e+01 9.902789999999999537e+00 1.129569000000000045e+01 1.155302999999999969e+01 1.137862999999999936e+01 3.107349999999999834e+00 1.433902999999999928e+01 1.137859000000000087e+01 1.368647999999999954e+01 1.636914000000000158e+01 1.285448000000000057e+01 4.666019999999999612e+00 1.509492000000000012e+01 9.902799999999999159e+00 2.691329999999999778e+00 1.230887000000000064e+01 9.902779999999999916e+00 5.082040000000000113e+00 1.712505000000000166e+01 1.137862999999999936e+01 4.936469999999999914e+00 1.358314000000000021e+01 1.285452000000000083e+01 6.495000000000000107e+00 1.433902999999999928e+01 1.137857999999999947e+01 6.911150000000000126e+00 1.636912999999999840e+01 1.285449000000000019e+01 8.053670000000000329e+00 1.509491000000000049e+01 9.902799999999999159e+00 6.079010000000000247e+00 1.230887000000000064e+01 9.902779999999999916e+00 8.469730000000000203e+00 1.712505000000000166e+01 1.137862999999999936e+01 8.324130000000000251e+00 1.358314999999999984e+01 1.285453000000000046e+01 9.882690000000000197e+00 1.433901999999999965e+01 1.137857999999999947e+01 1.029881999999999920e+01 1.636912999999999840e+01 1.285448000000000057e+01 1.144134999999999991e+01 1.509491000000000049e+01 9.902799999999999159e+00 4.104300000000000281e+00 9.522890000000000299e+00 9.902810000000000556e+00 1.087964999999999982e+01 9.522899999999999920e+00 9.902799999999999159e+00 7.491979999999999862e+00 9.522899999999999920e+00 9.902789999999999537e+00