-2.413845181080000202e+03
-2.413804462969999804e+03
-2.413811352059999990e+03
-2.413868278540000119e+03
-2.413978153909999946e+03
-2.414144389510000110e+03
-2.414370973820000017e+03
-2.414662096309999924e+03
-2.415022108000000117e+03
-2.415455333769999925e+03
