-3.182740000000000014e-01 -2.467010000000000036e-01 2.616153999999999868e+00 3.171289999999999942e-01 2.454560000000000075e-01 -2.614888999999999797e+00 3.180569999999999786e-01 2.472250000000000003e-01 -2.616251999999999800e+00 -3.185529999999999751e-01 -2.469629999999999881e-01 2.616141999999999967e+00 3.178909999999999791e-01 2.457920000000000105e-01 -2.615006999999999859e+00 3.183070000000000066e-01 2.468839999999999923e-01 -2.615936000000000039e+00 -3.187450000000000006e-01 -2.465370000000000061e-01 2.615963999999999956e+00 3.174529999999999852e-01 2.459790000000000032e-01 -2.615409999999999791e+00 3.180850000000000066e-01 2.464379999999999904e-01 -2.615796000000000010e+00 -3.186410000000000076e-01 -2.457050000000000067e-01 2.616471000000000213e+00 -3.180560000000000054e-01 -2.463660000000000017e-01 2.615940999999999850e+00 3.174359999999999959e-01 2.466359999999999941e-01 -2.615117000000000136e+00 -3.181899999999999729e-01 -2.467930000000000124e-01 2.616429000000000116e+00 -3.175160000000000204e-01 -2.463930000000000009e-01 2.616276000000000046e+00 3.176899999999999724e-01 2.458230000000000137e-01 -2.614828999999999848e+00 -3.182490000000000041e-01 -2.464030000000000109e-01 2.616506000000000220e+00 -3.182099999999999929e-01 -2.461689999999999989e-01 2.616191000000000155e+00 3.179830000000000156e-01 2.458549999999999902e-01 -2.614996000000000098e+00 3.172249999999999792e-01 2.461109999999999964e-01 -2.615171999999999830e+00 3.181669999999999776e-01 2.466990000000000016e-01 -2.616169000000000189e+00 3.172459999999999725e-01 2.454840000000000078e-01 -2.615276000000000156e+00 3.180899999999999839e-01 2.472149999999999903e-01 -2.616302999999999823e+00 3.176619999999999999e-01 2.457550000000000012e-01 -2.615521000000000207e+00 3.183799999999999963e-01 2.468110000000000026e-01 -2.616668999999999912e+00 3.176359999999999739e-01 2.457550000000000012e-01 -2.615596000000000032e+00 3.180870000000000086e-01 2.455789999999999917e-01 -2.615600000000000147e+00 3.177510000000000057e-01 2.459409999999999930e-01 -2.615683999999999898e+00 -3.182450000000000001e-01 -2.464330000000000132e-01 2.615787999999999780e+00 -3.184049999999999936e-01 -2.468100000000000016e-01 2.616150000000000198e+00 -3.180939999999999879e-01 -2.461039999999999894e-01 2.615841000000000083e+00 -3.184810000000000141e-01 -2.465380000000000071e-01 2.616381000000000068e+00 -3.181959999999999789e-01 -2.459369999999999890e-01 2.616661999999999821e+00 -3.184049999999999936e-01 -2.462249999999999994e-01 2.616298000000000012e+00 -3.174549999999999872e-01 -2.465769999999999906e-01 2.616280999999999857e+00 -3.183670000000000111e-01 -2.459469999999999990e-01 2.616419000000000050e+00 -3.177909999999999902e-01 -2.458039999999999947e-01 2.616211999999999982e+00 -3.183679999999999843e-01 -2.468430000000000069e-01 2.616165000000000074e+00 3.170789999999999997e-01 2.460080000000000044e-01 -2.615045999999999982e+00 3.181240000000000179e-01 2.469850000000000101e-01 -2.616255999999999915e+00 -3.180970000000000186e-01 -2.466190000000000049e-01 2.616114000000000051e+00 3.179359999999999964e-01 2.458009999999999917e-01 -2.615453000000000028e+00 3.186999999999999833e-01 2.464550000000000074e-01 -2.616229000000000138e+00 -3.186019999999999963e-01 -2.468720000000000081e-01 2.616239999999999899e+00 3.176419999999999799e-01 2.457519999999999982e-01 -2.614916000000000018e+00 3.179870000000000196e-01 2.465910000000000046e-01 -2.615879000000000065e+00 -3.190350000000000130e-01 -2.459320000000000117e-01 2.616359999999999797e+00 -3.175100000000000144e-01 -2.466659999999999964e-01 2.616103999999999985e+00 3.182519999999999794e-01 2.457030000000000047e-01 -2.615483999999999920e+00 -3.185209999999999986e-01 -2.460029999999999994e-01 2.616223999999999883e+00 -3.181350000000000011e-01 -2.457409999999999872e-01 2.616166999999999909e+00 3.176269999999999927e-01 2.462260000000000004e-01 -2.615378000000000203e+00 -3.183989999999999876e-01 -2.464389999999999914e-01 2.616163999999999934e+00 -3.176419999999999799e-01 -2.464459999999999984e-01 2.616289000000000087e+00 3.173380000000000090e-01 2.460509999999999919e-01 -2.614939999999999820e+00 -3.181519999999999904e-01 -2.460779999999999912e-01 2.616385999999999878e+00 -3.180999999999999939e-01 -2.460569999999999979e-01 2.616477999999999859e+00 -3.179199999999999804e-01 -2.459570000000000090e-01 2.616531999999999858e+00 3.178309999999999746e-01 2.467060000000000086e-01 -2.615645999999999916e+00 3.175290000000000057e-01 2.473879999999999968e-01 -2.615593000000000057e+00 3.173889999999999767e-01 2.472219999999999973e-01 -2.615172999999999970e+00 -3.188219999999999943e-01 -2.462100000000000122e-01 2.616369000000000167e+00 -3.184939999999999993e-01 -2.464550000000000074e-01 2.616277999999999881e+00 3.177459999999999729e-01 2.460239999999999927e-01 -2.614958999999999811e+00 3.181289999999999951e-01 2.458380000000000010e-01 -2.615531999999999968e+00 -3.184779999999999833e-01 -2.463239999999999874e-01 2.616201999999999916e+00 -3.184179999999999788e-01 -2.467189999999999939e-01 2.616093999999999919e+00 3.175299999999999789e-01 2.457910000000000095e-01 -2.614761999999999809e+00 3.178099999999999814e-01 2.455920000000000047e-01 -2.615511999999999837e+00 -3.186869999999999981e-01 -2.469179999999999986e-01 2.616217999999999932e+00 -3.182200000000000029e-01 -2.465640000000000054e-01 2.616251000000000104e+00 3.175629999999999842e-01 2.457100000000000117e-01 -2.614958999999999811e+00 3.177590000000000137e-01 2.457930000000000115e-01 -2.615851000000000148e+00 3.175370000000000137e-01 2.478049999999999975e-01 -2.615552000000000099e+00 3.177679999999999949e-01 2.478899999999999992e-01 -2.615826000000000207e+00 3.175609999999999822e-01 2.478499999999999870e-01 -2.615822000000000092e+00 3.175459999999999949e-01 2.461639999999999939e-01 -2.614984000000000197e+00 3.178070000000000062e-01 2.459649999999999892e-01 -2.615864000000000189e+00 3.172909999999999897e-01 2.461089999999999944e-01 -2.614933000000000174e+00 3.180669999999999886e-01 2.456959999999999977e-01 -2.615788999999999920e+00 3.173750000000000182e-01 2.462229999999999974e-01 -2.614777000000000129e+00 3.182980000000000254e-01 2.456649999999999945e-01 -2.615620999999999974e+00 -3.179230000000000111e-01 -2.465269999999999961e-01 2.616299000000000152e+00 -3.181370000000000031e-01 -2.463239999999999874e-01 2.616359999999999797e+00 -3.175740000000000229e-01 -2.466659999999999964e-01 2.616089999999999804e+00 -3.187960000000000238e-01 -2.465630000000000044e-01 2.616385999999999878e+00 -3.187840000000000118e-01 -2.460259999999999947e-01 2.615876999999999786e+00 -3.189629999999999965e-01 -2.464830000000000076e-01 2.616354999999999986e+00 -3.181829999999999936e-01 -2.462679999999999869e-01 2.616124999999999812e+00 -3.185990000000000211e-01 -2.466980000000000006e-01 2.616331999999999880e+00 -3.184449999999999781e-01 -2.467930000000000124e-01 2.616442000000000156e+00 -3.181450000000000111e-01 -2.457429999999999892e-01 2.616457000000000033e+00 -3.180459999999999954e-01 -2.464669999999999916e-01 2.616586999999999996e+00 -3.177369999999999917e-01 -2.464719999999999966e-01 2.616289000000000087e+00 3.171610000000000262e-01 2.481329999999999925e-01 -2.615467999999999904e+00 3.172949999999999937e-01 2.477380000000000138e-01 -2.615437000000000012e+00 3.178790000000000227e-01 2.476210000000000078e-01 -2.615744999999999987e+00 -3.190370000000000150e-01 -2.464260000000000062e-01 2.616066000000000003e+00 -3.185120000000000173e-01 -2.464719999999999966e-01 2.616585000000000161e+00 3.174259999999999859e-01 2.460680000000000089e-01 -2.615250000000000075e+00 3.180819999999999759e-01 2.455259999999999942e-01 -2.616064999999999863e+00 -3.184629999999999961e-01 -2.470870000000000011e-01 2.616373999999999977e+00 -3.178779999999999939e-01 -2.462890000000000079e-01 2.615920000000000023e+00 3.175660000000000149e-01 2.462860000000000049e-01 -2.614793000000000145e+00 3.184230000000000116e-01 2.457290000000000030e-01 -2.615683999999999898e+00 -3.187590000000000146e-01 -2.461319999999999897e-01 2.616254000000000079e+00 -3.183139999999999858e-01 -2.466460000000000041e-01 2.616120000000000001e+00 3.176340000000000274e-01 2.454500000000000015e-01 -2.614799000000000095e+00 3.181169999999999831e-01 2.452400000000000135e-01 -2.615879000000000065e+00 1.061000000000000094e-03 -1.489000000000000089e-03 8.140000000000000534e-04 -2.908399999999999874e+00 -1.747371000000000008e+00 3.412030000000000118e+00 2.908224000000000142e+00 1.746110999999999969e+00 -3.412475999999999843e+00 2.907270000000000021e+00 1.747320999999999902e+00 -3.412726000000000148e+00 2.011000000000000201e-03 -5.389999999999999826e-04 2.900000000000000017e-04 -2.908446999999999782e+00 -1.746329000000000020e+00 3.412107999999999919e+00 2.011000000000000201e-03 -1.358999999999999965e-03 8.949999999999999623e-04 -2.908368999999999982e+00 -1.747060999999999975e+00 3.411507999999999985e+00 2.908227000000000118e+00 1.746680999999999928e+00 -3.412377999999999911e+00 6.009999999999999717e-04 -1.724999999999999971e-03 1.260000000000000052e-03 9.439999999999999607e-04 -5.379999999999999583e-04 -1.900000000000000105e-04 -2.908507999999999871e+00 -1.746113999999999944e+00 3.411678000000000210e+00 6.509999999999999945e-04 -1.588000000000000002e-03 8.220000000000000310e-04 -2.908427999999999791e+00 -1.747327999999999992e+00 3.411429000000000045e+00 2.907302000000000053e+00 1.746987000000000068e+00 -3.413088000000000122e+00 2.907325000000000159e+00 1.747019000000000100e+00 -3.412691000000000141e+00 6.409999999999999682e-04 -2.990000000000000036e-04 -1.830000000000000029e-04 -2.908907999999999827e+00 -1.746712999999999960e+00 3.412323000000000217e+00 1.043000000000000090e-03 -1.219999999999999947e-03 -1.779999999999999898e-04 2.906836999999999893e+00 1.748280000000000056e+00 -3.412230999999999792e+00 -2.908163000000000054e+00 -1.746841000000000088e+00 3.410800000000000054e+00 1.343999999999999926e-03 -1.562000000000000020e-03 1.579999999999999916e-04 2.907918000000000003e+00 1.747330000000000050e+00 -3.411999999999999922e+00 -2.907655000000000101e+00 -1.746548999999999907e+00 3.410445999999999867e+00 8.440000000000000236e-04 -1.119999999999999902e-03 6.679999999999999740e-04 2.907296999999999798e+00 1.747149000000000063e+00 -3.412549999999999972e+00 -2.908247999999999944e+00 -1.746542000000000039e+00 3.410632000000000108e+00 1.111000000000000008e-03 -1.529999999999999893e-03 -6.440000000000000412e-04 2.908615999999999868e+00 1.746229000000000031e+00 -3.413848000000000216e+00 9.139999999999999904e-04 -1.570999999999999914e-03 5.320000000000000293e-04 1.142999999999999919e-03 -1.265000000000000065e-03 -8.080000000000000160e-04 1.242999999999999964e-03 -1.172999999999999998e-03 -1.307000000000000002e-03 2.907855000000000079e+00 1.746094000000000035e+00 -3.413654999999999884e+00 2.907754000000000172e+00 1.746990000000000043e+00 -3.413048999999999999e+00 1.235999999999999903e-03 -6.570000000000000319e-04 -6.369999999999999794e-04 1.394000000000000057e-03 -1.177000000000000095e-03 -8.019999999999999785e-04 2.907804000000000055e+00 1.746269999999999989e+00 -3.413365999999999900e+00 7.950000000000000252e-04 -1.570999999999999914e-03 9.259999999999999568e-04 1.335999999999999948e-03 -1.312999999999999931e-03 1.800000000000000113e-04 2.907252000000000169e+00 1.747902000000000067e+00 -3.410808999999999980e+00 2.907830000000000137e+00 1.747336000000000000e+00 -3.413329000000000057e+00 2.907299000000000078e+00 1.747616999999999976e+00 -3.413081000000000031e+00 2.907351999999999936e+00 1.747476999999999947e+00 -3.412697999999999787e+00 2.906946000000000030e+00 1.747811999999999921e+00 -3.411293999999999826e+00 2.907974999999999977e+00 1.747700000000000031e+00 -3.411439000000000110e+00 -2.908914999999999917e+00 -1.746464999999999934e+00 3.411201000000000150e+00 -2.908952000000000204e+00 -1.746579000000000104e+00 3.410845000000000127e+00 -2.908205000000000151e+00 -1.747052000000000049e+00 3.411356000000000055e+00 -2.909008000000000038e+00 -1.745832000000000050e+00 3.411236999999999853e+00 -2.907885999999999971e+00 -1.746917000000000053e+00 3.411906000000000105e+00 -2.908698999999999923e+00 -1.746518000000000015e+00 3.411039000000000154e+00 -2.908453000000000177e+00 -1.746625000000000094e+00 3.411725000000000119e+00 -2.907261999999999791e+00 -1.746478999999999893e+00 3.411747000000000085e+00 -2.908695999999999948e+00 -1.747006000000000059e+00 3.412285999999999930e+00 2.889999999999999774e-04 -6.390000000000000280e-04 5.389999999999999826e-04 -2.909450999999999787e+00 -1.746377000000000068e+00 3.412529000000000146e+00 2.907802000000000220e+00 1.746853999999999907e+00 -3.413781000000000176e+00 -2.908182000000000045e+00 -1.745813999999999977e+00 3.410791000000000128e+00 1.270000000000000078e-03 2.259999999999999910e-04 -2.680000000000000090e-04 -2.908541000000000043e+00 -1.745983000000000063e+00 3.413539999999999797e+00 1.673000000000000008e-03 -6.030000000000000204e-04 5.689999999999999529e-04 -2.907472999999999974e+00 -1.746760000000000090e+00 3.412408999999999804e+00 2.908336999999999950e+00 1.747541000000000011e+00 -3.413426999999999989e+00 2.908075000000000188e+00 1.747797000000000045e+00 -3.412349999999999994e+00 2.233000000000000176e-03 -4.449999999999999746e-04 2.570000000000000127e-04 -2.908002999999999894e+00 -1.745643999999999973e+00 3.412764999999999826e+00 1.430000000000000064e-03 -2.809999999999999998e-04 6.030000000000000204e-04 -2.908173000000000119e+00 -1.746564999999999923e+00 3.412269000000000219e+00 2.907389999999999919e+00 1.747529000000000110e+00 -3.413082000000000171e+00 1.850000000000000082e-03 -1.258999999999999920e-03 4.150000000000000043e-04 7.690000000000000438e-04 -4.300000000000000165e-05 -2.649999999999999903e-04 -2.909121999999999986e+00 -1.745216000000000101e+00 3.412504000000000204e+00 -8.800000000000000313e-04 -9.449999999999999850e-04 1.312999999999999931e-03 2.906651999999999791e+00 1.747730999999999923e+00 -3.412023000000000028e+00 -2.907772000000000023e+00 -1.745660999999999907e+00 3.411077999999999832e+00 1.000999999999999937e-03 -1.036000000000000029e-03 9.070000000000000371e-04 2.907505000000000006e+00 1.747897999999999952e+00 -3.412094000000000182e+00 -2.907728999999999786e+00 -1.746620000000000061e+00 3.411303999999999892e+00 2.907070000000000043e+00 1.747516999999999987e+00 -3.413221000000000060e+00 2.907411999999999885e+00 1.747949999999999893e+00 -3.412345000000000184e+00 2.907620000000000093e+00 1.747344000000000008e+00 -3.413748000000000005e+00 -2.908977999999999842e+00 -1.746394000000000002e+00 3.411918000000000006e+00 1.234000000000000071e-03 -9.929999999999999591e-04 -1.072999999999999952e-03 2.173000000000000018e-03 -4.270000000000000249e-04 -4.200000000000000174e-04 -2.908444999999999947e+00 -1.745997999999999939e+00 3.411948000000000203e+00 2.907274999999999832e+00 1.748062999999999922e+00 -3.412014999999999798e+00 1.796999999999999986e-03 -1.649999999999999991e-04 -2.910000000000000260e-04 -2.908351999999999826e+00 -1.746232000000000006e+00 3.411197000000000035e+00 2.907948999999999895e+00 1.747859000000000052e+00 -3.412622999999999962e+00 7.010000000000000172e-04 -8.239999999999999712e-04 1.550000000000000000e-04 1.245999999999999929e-03 -1.169999999999999979e-04 1.327000000000000055e-03 -2.907700000000000173e+00 -1.746404999999999985e+00 3.412338000000000093e+00 2.907461000000000073e+00 1.747883000000000076e+00 -3.411707999999999963e+00 2.907545999999999964e+00 1.747071000000000041e+00 -3.412614000000000036e+00 1.118999999999999986e-03 -7.780000000000000457e-04 8.180000000000000422e-04 -2.908110999999999891e+00 -1.745886999999999967e+00 3.411535000000000206e+00 1.397999999999999937e-03 -5.199999999999999544e-04 8.919999999999999978e-04 -2.907955999999999985e+00 -1.746259000000000006e+00 3.412059000000000175e+00 2.907834999999999948e+00 1.747811999999999921e+00 -3.412072000000000216e+00 2.908065000000000122e+00 1.746947000000000028e+00 -3.411897000000000180e+00 1.093000000000000005e-03 -9.699999999999999963e-05 2.439999999999999949e-04 -2.908605000000000107e+00 -1.745978999999999948e+00 3.411233999999999877e+00 4.150000000000000043e-04 -4.000000000000000327e-05 4.209999999999999875e-04 -2.907601999999999798e+00 -1.745760999999999896e+00 3.412183000000000188e+00 2.906819000000000042e+00 1.747808000000000028e+00 -3.412170999999999843e+00 2.907703999999999844e+00 1.747176999999999980e+00 -3.412974999999999870e+00 5.940000000000000184e-04 8.100000000000000375e-05 6.040000000000000447e-04 -2.907811000000000146e+00 -1.745926000000000089e+00 3.411274999999999835e+00 1.399999999999999986e-03 -5.720000000000000258e-04 -1.440000000000000036e-04 9.439999999999999607e-04 1.080000000000000014e-03 -5.700000000000000314e-05 1.195000000000000099e-03 -1.139999999999999954e-03 -1.296999999999999976e-03 2.070999999999999924e-03 5.330000000000000536e-04 -6.930000000000000396e-04 2.907779000000000114e+00 1.748069000000000095e+00 -3.412815000000000154e+00 1.732999999999999948e-03 8.429999999999999993e-04 1.869999999999999917e-04 9.510000000000000224e-04 -2.750000000000000166e-04 -1.090000000000000067e-04 2.907388000000000083e+00 1.747509999999999897e+00 -3.412767999999999802e+00 2.907601999999999798e+00 1.748261999999999983e+00 -3.412084000000000117e+00 7.470000000000000511e-04 -1.154999999999999994e-03 -1.072999999999999952e-03 5.349999999999999938e-04 -8.220000000000000310e-04 -6.290000000000000018e-04 2.907560000000000144e+00 1.747779999999999889e+00 -3.413155000000000161e+00 2.907299000000000078e+00 1.746793999999999958e+00 -3.412329999999999863e+00 2.907624000000000208e+00 1.747138999999999998e+00 -3.413921999999999901e+00 2.908033999999999786e+00 1.747316000000000091e+00 -3.413863999999999788e+00 2.907957999999999821e+00 1.747246000000000077e+00 -3.413764000000000021e+00 2.907958999999999961e+00 1.746917999999999971e+00 -3.413425999999999849e+00 2.908154000000000128e+00 1.747184999999999988e+00 -3.413136999999999865e+00 -2.908745999999999832e+00 -1.745805999999999969e+00 3.412713000000000108e+00 -2.909031999999999840e+00 -1.745441999999999938e+00 3.412882000000000193e+00 -2.908507999999999871e+00 -1.745460000000000012e+00 3.412516000000000105e+00 -2.907934000000000019e+00 -1.746769000000000016e+00 3.410435999999999801e+00 -2.908929000000000098e+00 -1.746564999999999923e+00 3.410252999999999979e+00 -2.908056999999999892e+00 -1.746302999999999939e+00 3.410772999999999833e+00 -2.907699000000000034e+00 -1.746590000000000087e+00 3.410159000000000162e+00 -2.907541999999999849e+00 -1.747001000000000026e+00 3.411042999999999825e+00 -2.907979000000000092e+00 -1.746342999999999979e+00 3.410525999999999947e+00 -2.910050000000000026e+00 -1.746874999999999956e+00 3.412297000000000136e+00 -2.909232999999999958e+00 -1.747290000000000010e+00 3.411531000000000091e+00 1.709000000000000016e-03 -1.273000000000000043e-03 -9.539999999999999869e-04 -2.908287000000000067e+00 -1.746391000000000027e+00 3.411680000000000046e+00 1.369999999999999961e-04 -2.660000000000000146e-04 -9.999999999999999547e-07 2.271000000000000015e-03 -9.849999999999999815e-04 2.139999999999999975e-04 -2.908408999999999800e+00 -1.746885999999999939e+00 3.412174999999999958e+00 2.908243999999999829e+00 1.746893999999999947e+00 -3.412421999999999844e+00 1.624000000000000010e-03 -1.113000000000000057e-03 -6.859999999999999779e-04 3.499999999999999693e-05 -1.304000000000000038e-03 -4.100000000000000047e-05 -2.908148000000000177e+00 -1.746804000000000023e+00 3.413215999999999806e+00 2.906969000000000136e+00 1.747139999999999915e+00 -3.414102000000000192e+00 2.906864000000000114e+00 1.746790999999999983e+00 -3.412615999999999872e+00 1.314000000000000064e-03 -6.300000000000000261e-04 -3.000000000000000076e-06 -2.908433000000000046e+00 -1.746904999999999930e+00 3.411932000000000187e+00 1.930999999999999991e-03 -1.345999999999999974e-03 4.970000000000000459e-04 -2.907614999999999839e+00 -1.746286000000000005e+00 3.412633000000000028e+00 2.908506000000000036e+00 1.747319999999999984e+00 -3.413470999999999922e+00 2.907090999999999870e+00 1.746461999999999959e+00 -3.412592000000000070e+00 1.809999999999999977e-03 -7.349999999999999763e-04 1.979999999999999881e-04 -2.907478999999999925e+00 -1.747290000000000010e+00 3.411353000000000080e+00 9.120000000000000502e-04 -1.075999999999999917e-03 4.470000000000000232e-04 -2.908139999999999947e+00 -1.746520999999999990e+00 3.412806999999999924e+00 2.907382999999999829e+00 1.747527000000000053e+00 -3.413704000000000072e+00 2.907643999999999895e+00 1.747695999999999916e+00 -3.413066999999999851e+00 2.907550000000000079e+00 1.747506000000000004e+00 -3.412434999999999885e+00 2.908187999999999995e+00 1.746887999999999996e+00 -3.412563000000000013e+00