1.656703237869592613e+03 -9.407635729337641806e+01 -6.501226025206918848e+02 -9.407635729337641806e+01 1.771361033791899445e+03 -4.177539540740735333e+02 -6.501226025206918848e+02 -4.177539540740735333e+02 1.350661144604232049e+03
1.657174555031101590e+03 -9.403332323134735304e+01 -6.500279130946447594e+02 -9.403332323134735304e+01 1.770625716424946631e+03 -4.174862300457534161e+02 -6.500279130946447594e+02 -4.174862300457534161e+02 1.350779075321691380e+03
1.657121392750433415e+03 -9.402021015857421560e+01 -6.497132573064216103e+02 -9.402021015857421560e+01 1.769462014531431805e+03 -4.170814780293495687e+02 -6.497132573064216103e+02 -4.170814780293495687e+02 1.350705700072494437e+03
1.657290703529830353e+03 -9.392728846167443635e+01 -6.490578499906774823e+02 -9.392728846167443635e+01 1.768425183428194941e+03 -4.164825076400711055e+02 -6.490578499906774823e+02 -4.164825076400711055e+02 1.351507249324139138e+03
1.656930593919187913e+03 -9.389674442034204560e+01 -6.482197580102659913e+02 -9.389674442034204560e+01 1.766968197881639981e+03 -4.157753435332267600e+02 -6.482197580102659913e+02 -4.157753435332267600e+02 1.351949674256797380e+03
1.656415981883153108e+03 -9.379891075474603213e+01 -6.470981628454570682e+02 -9.379891075474603213e+01 1.765244835837999744e+03 -4.149153143238886514e+02 -6.470981628454570682e+02 -4.149153143238886514e+02 1.352838349372071889e+03
1.655719322724110498e+03 -9.374863190112959899e+01 -6.457105679127257645e+02 -9.374863190112959899e+01 1.763431029816182900e+03 -4.138887563351229346e+02 -6.457105679127257645e+02 -4.138887563351229346e+02 1.353839738954863151e+03
1.654530162632957627e+03 -9.361573344425066523e+01 -6.440561183266648868e+02 -9.361573344425066523e+01 1.760945993853794789e+03 -4.127135207334009692e+02 -6.440561183266648868e+02 -4.127135207334009692e+02 1.354871918901900699e+03
1.653473321415356622e+03 -9.354212636172285045e+01 -6.421328290143793538e+02 -9.354212636172285045e+01 1.758707208357461923e+03 -4.113543978316080825e+02 -6.421328290143793538e+02 -4.113543978316080825e+02 1.356423637343252494e+03
1.651778387933905378e+03 -9.338814556132463451e+01 -6.399320352051307736e+02 -9.338814556132463451e+01 1.755652485453391819e+03 -4.098320787545177950e+02 -6.399320352051307736e+02 -4.098320787545177950e+02 1.357834966213224106e+03
