-1.718859999783775017e-01 -2.240129989354165858e-04 8.480009490096276220e-04 2.288099925218129230e-02 1.114900174775648387e-02 1.727999986256371218e-02 -1.946800074845345119e-02 1.115899854491268078e-02 1.730200009631408659e-02 3.267000020981619592e-03 -2.139997520479236461e-04 8.689999821803916702e-04 8.610000721975641196e-04 -9.459999347644779469e-04 1.179999961923415693e-04 1.050999889085587865e-03 1.418000078823143531e-03 -6.650000072177749983e-04 -2.199982154669141710e-04 -2.234299999949686602e-02 1.716100002353226558e-02 -4.269999997240060078e-04 -6.700003316114497482e-05 -8.679999975760969728e-04 4.660000186824847556e-04 -1.989999640990383655e-04 6.579999976265237492e-04 -6.109999759630876720e-04 -2.860000457745762539e-04 4.360000036583103894e-04 2.260000089725654930e-04 -7.199998226927922026e-05 6.389999988244318132e-04 -3.709999970625296024e-04 2.399997280120735079e-05 8.610000020238933174e-04 7.050001037185754009e-04 -1.332999946155255348e-03 5.259999974400042652e-04 -2.240000267720395244e-04 2.909999821967907069e-04 -8.629999990542254517e-04 -8.500000744422505207e-05 1.519999943046033259e-04 7.340000003173583962e-04 8.549998859126601300e-04 1.499000064534011930e-03 -1.300000062167922606e-04 4.178000086552062682e-03 3.120003359158039021e-04 1.995499997662639538e-02 1.637000063201590055e-02 -5.119998717635474220e-03 4.434699991475420794e-02 -1.296099920622481756e-02 -7.244000935743782378e-03 4.455000007877870510e-02 3.396000257628119072e-03 -1.932999722994312771e-03 2.018799998318539929e-02 -2.059998517167458006e-04 -4.769999952746621966e-04 2.032800000161355189e-02 -1.999998937221040478e-04 3.600000459877040104e-05 1.974700000106801093e-02 5.499995662917774855e-05 2.036000024176152449e-03 2.003899999766269729e-02 2.800011971758984840e-05 -1.589999783942641252e-04 1.951000000000426352e-02 1.672000192629190468e-03 -1.076999853427826597e-03 2.014099999184659068e-02 3.080000922993962132e-04 2.390000432676610558e-04 1.999599999806115150e-02 1.326000013078922632e-03 1.318000120690775026e-03 2.042799999136415273e-02 9.600011324090439472e-05 4.000027807402431704e-06 2.056999999946609869e-02 3.014400132256427056e-02 -1.753299772082775668e-02 -6.270001488772223523e-04 2.119999218107120921e-03 1.358100020471520765e-02 4.442899997473216678e-02 4.058000127979400490e-03 -2.569996734504984893e-04 1.966399997785713699e-02 3.111999903069188195e-02 1.573200239351670374e-02 3.994799981250776733e-02 3.507699873635529431e-02 1.669600265271568851e-02 -1.670002102972123633e-04 2.119999153403457921e-03 9.080000195624250920e-04 -1.409320000126090822e-01 -8.950000670965585232e-04 -6.080000881520709628e-04 -2.048599999445241404e-02 3.112600101201061162e-02 -1.633099768630615414e-02 -4.041900015549836772e-02 -2.790001298614356836e-04 2.269999585060867838e-04 -2.041599999868670690e-02 2.526999991573233503e-03 -1.388999829417246175e-03 -2.055800001256123666e-02 -5.629999060737267977e-04 -2.730000062945928205e-03 -2.038899999416539030e-02 1.694999970781917295e-03 -1.092999892052945931e-03 -2.026900000826438106e-02 5.699989769310488338e-05 -1.720000165566120179e-04 -2.089100000014282657e-02 5.409998852166649592e-04 1.800002039104691418e-05 -2.054800000300422216e-02 -2.040001501561316947e-04 4.759999639136530594e-04 -2.068099999934941771e-02 -7.060001007551544670e-04 -1.850000741596142379e-04 -2.078799999591818964e-02 5.541999868215084606e-03 2.690003989765614575e-04 -2.018900003085973699e-02 -2.132000294772383366e-03 2.407999818370205013e-03 -2.040899999063696194e-02 3.772999724758001414e-03 2.134000264751120379e-03 -2.062500002295801840e-02 3.792999894954092628e-03 -9.899973349853571903e-05 -2.038700002083792054e-02
-1.717989999784752253e-01 -2.230129923595796813e-04 8.440009485284012463e-04 2.286599925274217585e-02 1.114100174661404076e-02 1.727199986265449960e-02 -1.945400074766567497e-02 1.114799854596351322e-02 1.729400009624779480e-02 3.263000020710570253e-03 -2.109997523584356872e-04 8.609999821994745181e-04 8.610000719485940042e-04 -9.429999347684734842e-04 1.139999961893449541e-04 1.048999889550409140e-03 1.412000078673880839e-03 -6.630000072007419167e-04 -2.189982169204486508e-04 -2.232399999942423149e-02 1.715800002350776482e-02 -4.239999997019265913e-04 -6.700003293025867408e-05 -8.639999975926565459e-04 4.660000186824847556e-04 -1.989999640990383655e-04 6.579999976265237492e-04 -6.109999761198679682e-04 -2.840000457755751891e-04 4.350000036563126142e-04 2.270000089245345209e-04 -7.099998218865460203e-05 6.439999988179130608e-04 -3.719999968891896601e-04 2.199997272957260775e-05 8.650000020314109472e-04 7.040001035617949720e-04 -1.330999946231884324e-03 5.249999974435262716e-04 -2.220000268697492121e-04 2.919999823440556897e-04 -8.669999990662640961e-04 -8.900000730952407468e-05 1.499999939990856489e-04 7.310000003414356346e-04 8.579998859827705701e-04 1.498000064759904019e-03 -1.310000062323529713e-04 4.171000086751353725e-03 3.090003353813977052e-04 1.994999997666802721e-02 1.635900063192206183e-02 -5.119998718484388908e-03 4.432999991481493401e-02 -1.295199920624854478e-02 -7.245000935081089520e-03 4.453200007873003158e-02 3.394000257799811328e-03 -1.935999723155562005e-03 2.017799998319943708e-02 -2.039998516576751108e-04 -4.779999951263983328e-04 2.032500000160351178e-02 -2.009998937828224295e-04 3.600000451215249337e-05 1.973600000107353022e-02 5.599995715306969039e-05 2.029000024250784094e-03 2.003799999766416734e-02 2.800011965687143676e-05 -1.589999784052517553e-04 1.949900000000426292e-02 1.672000192147809691e-03 -1.070999853432820937e-03 2.013599999184060088e-02 3.060000918384471230e-04 2.440000431014173411e-04 1.998099999806719762e-02 1.324000012850384475e-03 1.320000120525530304e-03 2.041399999137319746e-02 9.700011305100487708e-05 6.000027876040545825e-06 2.056299999945858381e-02 3.011800132127468235e-02 -1.751499772278116221e-02 -6.140001487516858446e-04 2.118999218548214564e-03 1.357400020462359511e-02 4.441299997474467548e-02 4.050000127643761660e-03 -2.529996740615338656e-04 1.965799997789730025e-02 3.109299903140237686e-02 1.572100239145271180e-02 3.992599981266779785e-02 3.504799873718558029e-02 1.668400265050842476e-02 -1.810002101251500357e-04 2.117999153799240020e-03 9.070000194690995467e-04 -1.408740000125970337e-01 -8.940000676850411035e-04 -6.000000880734439931e-04 -2.048299999446592454e-02 3.110200101135918854e-02 -1.632099768810230458e-02 -4.040000015537587724e-02 -2.740001296549765802e-04 2.249999588942268574e-04 -2.040599999871230835e-02 2.519999991288919203e-03 -1.383999829929676972e-03 -2.054100001252759031e-02 -5.609999062564587254e-04 -2.727000062786676723e-03 -2.038099999417942315e-02 1.686999970907226585e-03 -1.093999892648998135e-03 -2.026000000821922414e-02 5.699989760808262993e-05 -1.700000165446254909e-04 -2.087900000014482338e-02 5.419998853309341462e-04 1.700002047366931264e-05 -2.054100000300874279e-02 -2.010001496841429085e-04 4.709999641575247551e-04 -2.066399999936097825e-02 -7.140001006889161971e-04 -1.850000747526697633e-04 -2.077599999587402893e-02 5.535999868026832485e-03 2.720003985297720609e-04 -2.018200003082961172e-02 -2.132000294420183760e-03 2.403999818379195120e-03 -2.039999999063297001e-02 3.766999724975500247e-03 2.132000264309325509e-03 -2.061300002292289907e-02 3.790999894992731593e-03 -9.899973364280409177e-05 -2.038000002082688070e-02
-1.715999999783995866e-01 -2.240129773091584014e-04 8.440009474309489307e-04 2.284199925359453945e-02 1.112900174478892619e-02 1.726199986279896431e-02 -1.943200074682435372e-02 1.113599854761539165e-02 1.728200009613834257e-02 3.262000020786200594e-03 -2.119997524340659417e-04 8.609999822059932837e-04 8.620000718784835529e-04 -9.419999346918443272e-04 1.149999961828262264e-04 1.050999889631559336e-03 1.411000078826140204e-03 -6.620000072107829056e-04 -2.179982188774433327e-04 -2.229899999936058724e-02 1.714600002347727720e-02 -4.259999996207764926e-04 -6.800003308052031035e-05 -8.629999975806179743e-04 4.670000186769649440e-04 -1.989999640244069837e-04 6.569999976210039432e-04 -6.109999760387179292e-04 -2.850000457745762296e-04 4.360000036573115139e-04 2.280000090056846383e-04 -7.199998211202545296e-05 6.449999988133919620e-04 -3.729999968135594272e-04 2.099997265394235328e-05 8.650000020379297128e-04 7.040001035728346438e-04 -1.330999946229886573e-03 5.269999974435263202e-04 -2.210000270154898936e-04 2.939999824206848168e-04 -8.659999990737816044e-04 -9.000000745526475052e-05 1.519999939244542886e-04 7.320000003449577981e-04 8.599998859016203629e-04 1.499000064910165466e-03 -1.320000062443915699e-04 4.165000086723754345e-03 3.090003349226217843e-04 1.994499997670114849e-02 1.635400063174707527e-02 -5.118998718880518953e-03 4.431199991484152667e-02 -1.295199920647708246e-02 -7.243000935095075463e-03 4.451800007872803305e-02 3.393000257598872103e-03 -1.933999723240181984e-03 2.016899998320295651e-02 -2.039998518475746121e-04 -4.759999951333904666e-04 2.031800000160151332e-02 -1.999998936702009045e-04 3.400000458079061445e-05 1.972900000107000867e-02 5.599995783926186199e-05 2.020000024251782968e-03 2.003899999767315768e-02 2.700011955916176081e-05 -1.579999784848775443e-04 1.949500000000878655e-02 1.671000191963429920e-03 -1.068999853514444615e-03 2.012999999184411984e-02 3.030000917296977233e-04 2.450000428685333138e-04 1.997499999808275903e-02 1.323000012968525733e-03 1.318000120443906745e-03 2.040799999138070975e-02 9.600011301788575612e-05 6.000027794417026473e-06 2.055699999946410117e-02 3.007600131933367213e-02 -1.748699772592566745e-02 -5.820001485478205807e-04 2.116999218692307803e-03 1.357100020445735182e-02 4.439799997475871174e-02 4.040000127557091814e-03 -2.519996748198342191e-04 1.965599997795150142e-02 3.104999903295419666e-02 1.569800238816665416e-02 3.989199981292811809e-02 3.499999873874457684e-02 1.666200264685919336e-02 -2.000002098382217051e-04 2.115999154206061033e-03 9.060000193777715356e-04 -1.408140000125849833e-01 -8.940000677535038087e-04 -5.980000880584608125e-04 -2.046799999446792181e-02 3.106300101003977784e-02 -1.630099769101692533e-02 -4.036500015518058176e-02 -2.730001296754082916e-04 2.259999589798458665e-04 -2.039599999871882785e-02 2.516999991262968209e-03 -1.382999830147577840e-03 -2.053200001251203125e-02 -5.599999063470008582e-04 -2.725000062700058678e-03 -2.036999999418694085e-02 1.685999970816684512e-03 -1.091999892713640822e-03 -2.024900000821570206e-02 5.699989773891144261e-05 -1.710000165346367334e-04 -2.086900000014382112e-02 5.409998854507233916e-04 1.600002040603007203e-05 -2.053300000300222264e-02 -2.000001494776838210e-04 4.689999642431437726e-04 -2.065399999936450015e-02 -7.120001007093478300e-04 -1.840000745914204699e-04 -2.076599999588606832e-02 5.532999868146621682e-03 2.710003983108722684e-04 -2.017400003081205526e-02 -2.131000294056944241e-03 2.399999818465812802e-03 -2.038899999063449250e-02 3.763999725181959265e-03 2.130000264092422792e-03 -2.060300002290434140e-02 3.787999895047930530e-03 -9.899973385970609540e-05 -2.037000002081032143e-02
-1.713169999783995812e-01 -2.240129559057954869e-04 8.440009458688297900e-04 2.279499925516456985e-02 1.110700174121732366e-02 1.724499986308037150e-02 -1.939200074533547688e-02 1.111499855062262135e-02 1.726400009593852605e-02 3.251000020716090285e-03 -2.109997532649998989e-04 8.619999822657127900e-04 8.590000717327428556e-04 -9.399999349177361749e-04 1.159999961973880346e-04 1.047999889950639854e-03 1.407000078602246070e-03 -6.590000071902277689e-04 -2.159982222934923575e-04 -2.225499999922531114e-02 1.713000002342228434e-02 -4.219999996152566679e-04 -6.800003277700040582e-05 -8.619999976026974020e-04 4.640000186824847612e-04 -1.989999642502988800e-04 6.579999976375634210e-04 -6.079999761954982609e-04 -2.830000455486843930e-04 4.350000036387541768e-04 2.260000090001647809e-04 -7.199998226428484295e-05 6.439999988244318263e-04 -3.699999967379291512e-04 1.999997288083313126e-05 8.650000020223690264e-04 7.030001031135332942e-04 -1.324999946306515885e-03 5.259999974430529333e-04 -2.190000267775594285e-04 2.909999825739431178e-04 -8.639999990818247096e-04 -8.700000761204510933e-05 1.539999941503461523e-04 7.310000003264004610e-04 8.559998863719614796e-04 1.493000064610641242e-03 -1.290000062163188736e-04 4.159000086900966828e-03 3.060003344598504513e-04 1.993599997673726337e-02 1.634100063170126904e-02 -5.119998719885688124e-03 4.428999991491429367e-02 -1.294199920684748970e-02 -7.240000934364742603e-03 4.449200007866983136e-02 3.384000257408972465e-03 -1.931999723927846488e-03 2.016199998325063705e-02 -2.039998518271429306e-04 -4.769999951433791913e-04 2.030800000160251292e-02 -1.989998937844701513e-04 3.500000464942872714e-05 1.972200000106348952e-02 5.599995873578524351e-05 2.008000024249784708e-03 2.003699999768514262e-02 2.600011960167289033e-05 -1.589999785665010515e-04 1.948900000001530311e-02 1.666000191594670631e-03 -1.064999853904582310e-03 2.011799999186772436e-02 3.050000916800190321e-04 2.450000430108039491e-04 1.996599999807172066e-02 1.319000013011036986e-03 1.317000120135392548e-03 2.040199999140378945e-02 9.800011296268718833e-05 6.000027935688772836e-06 2.054699999945306180e-02 3.003100131675614376e-02 -1.744999772928907192e-02 -5.420001483363853312e-04 2.113999218991533327e-03 1.356500020420249412e-02 4.436999997478126290e-02 4.026000126968609302e-03 -2.439996758756611626e-04 1.965899997802078580e-02 3.099599903467771186e-02 1.567200238403866630e-02 3.984799981325216900e-02 3.493499874097706626e-02 1.663000264190926669e-02 -2.340002094474670426e-04 2.112999154646002121e-03 9.050000192168066284e-04 -1.407480000125674591e-01 -8.930000678070545896e-04 -5.970000879788350291e-04 -2.046399999447444037e-02 3.100500100794915254e-02 -1.626999769535753329e-02 -4.031900015489139899e-02 -2.730001296422891678e-04 2.259999589858391192e-04 -2.038999999871882532e-02 2.512999991312646689e-03 -1.382999830441108882e-03 -2.052300001248994962e-02 -5.599999065352526161e-04 -2.722000062693066477e-03 -2.036299999418993839e-02 1.683999970687503293e-03 -1.089999892860905786e-03 -2.024500000820666015e-02 5.799989777755041979e-05 -1.710000164520143480e-04 -2.086200000014934094e-02 5.419998854026922839e-04 1.700002048665471397e-05 -2.052800000300874367e-02 -2.000001494445646972e-04 4.689999642491370253e-04 -2.064799999936450109e-02 -7.130001006116381450e-04 -1.850000746630552225e-04 -2.076199999587954870e-02 5.525999868120670157e-03 2.720003977904503711e-04 -2.016500003077441316e-02 -2.127000293867044398e-03 2.397999818775326236e-03 -2.038199999065457360e-02 3.757999725512079815e-03 2.126000263643635421e-03 -2.059800002286723067e-02 3.778999895070009329e-03 -9.899973453638290894e-05 -2.036600002076064536e-02
-1.709229999790140009e-01 -2.150129260954875086e-04 8.560009436850168386e-04 2.270599925919340734e-02 1.105300173447624178e-02 1.723499986362558162e-02 -1.936000074187633688e-02 1.106699855301182533e-02 1.723300009580983408e-02 3.246000020461600050e-03 -2.079997536481455981e-04 8.569999822903153841e-04 8.720000712033311539e-04 -9.329999339345428772e-04 1.159999961186377687e-04 1.037999890020750412e-03 1.406000077844944598e-03 -6.600000071340303420e-04 -2.129982254787784936e-04 -2.221499999902738429e-02 1.710100002336577274e-02 -4.170000004929960507e-04 -5.800003242082444151e-05 -8.839999976402854913e-04 4.810000172438620822e-04 -1.809999629785688405e-04 6.439999975257461665e-04 -5.869999784920052442e-04 -2.530000439654435059e-04 4.300000034928709125e-04 2.470000092656944807e-04 -7.499998066905727665e-05 6.509999987115114729e-04 -3.399999952567955516e-04 9.999751577319276743e-07 8.730000018757519105e-04 7.030001051461582306e-04 -1.350999946294529144e-03 5.379999974690236617e-04 -2.350000272534203251e-04 2.969999813598634829e-04 -8.679999989995002517e-04 -8.900000488935582864e-05 1.179999939990857249e-04 7.310000003733996493e-04 8.639998867445929619e-04 1.488000065214684304e-03 -1.300000062554833161e-04 4.139000086354995521e-03 3.130003329442486329e-04 1.993299997684067071e-02 1.632100063185474778e-02 -5.123998721425262678e-03 4.426299991502867515e-02 -1.293599920803491753e-02 -7.227000933947919786e-03 4.445500007862373398e-02 3.381000255715859836e-03 -1.910999724173716033e-03 2.014299998324622226e-02 -1.989998527142743502e-04 -4.659999947752167717e-04 2.029800000156392614e-02 -1.999998940074888007e-04 3.700000456081306972e-05 1.970900000106701189e-02 5.399996017828000014e-05 1.989000024099523475e-03 2.003799999771516127e-02 2.400011939521382937e-05 -1.569999787277503534e-04 1.947900000002434837e-02 1.664000191745931096e-03 -1.066999854055842873e-03 2.011799999188076254e-02 2.980000926726043245e-04 2.310000424694056819e-04 1.995399999812434363e-02 1.311000013075627703e-03 1.316000119528352606e-03 2.039999999144894924e-02 1.070001127838273743e-04 8.000028611366700237e-06 2.054199999940138632e-02 2.997500131272286608e-02 -1.739199773346044101e-02 -4.780001480852083930e-04 2.093999219609839462e-03 1.355500020266491544e-02 4.434499997490165546e-02 4.003000126815699916e-03 -2.429996776291413931e-04 1.964499997814674395e-02 3.091299903784594169e-02 1.562500237769143263e-02 3.977799981375726435e-02 3.483799874534212332e-02 1.656900263452818281e-02 -2.790002088511095890e-04 2.115999156044832356e-03 8.930000195325976751e-04 -1.406590000125720052e-01 -8.950000681763906020e-04 -5.900000881011282020e-04 -2.043499999447039028e-02 3.094200100417752314e-02 -1.621399770003833368e-02 -4.023500015459958307e-02 -2.710001291333091083e-04 2.199999591470884594e-04 -2.037999999872387030e-02 2.503999990980301966e-03 -1.376999831099806008e-03 -2.050100001244626463e-02 -5.539999082399818184e-04 -2.698000062219307708e-03 -2.034299999424703242e-02 1.686999970036077946e-03 -1.079999892615036462e-03 -2.022600000823321018e-02 4.899989732541661086e-05 -1.640000171187023994e-04 -2.084800000010665622e-02 5.309998851277705463e-04 2.100001965971625017e-05 -2.052300000295202015e-02 -1.950001497879491304e-04 4.749999646472658041e-04 -2.062799999939809656e-02 -7.130001018255943809e-04 -1.680000746500698891e-04 -2.074899999589653252e-02 5.509999868094718305e-03 2.730003965893561583e-04 -2.015600003068709900e-02 -2.143000292535523522e-03 2.381999817587217641e-03 -2.035999999055027390e-02 3.762999727411651691e-03 2.103000264050754620e-03 -2.056900002287185419e-02 3.776999895903590098e-03 -1.089997346736591255e-04 -2.035200002073961345e-02
-1.703499999794639008e-01 -2.100128827723352738e-04 8.430009405171452839e-04 2.263299926023072672e-02 1.103600172891028297e-02 1.718999986404550970e-02 -1.926800074009597796e-02 1.104199855994983208e-02 1.721300009532698155e-02 3.252000019358617690e-03 -1.939997532023550973e-04 8.489999822432120263e-04 8.490000731570303836e-04 -9.599999356900208074e-04 9.999999627256412368e-05 1.048999890851035413e-03 1.394000078662893313e-03 -6.740000071827622090e-04 -2.289982309219325957e-04 -2.214500000026444274e-02 1.707400002338416503e-02 -4.090000014817093076e-04 -4.500003181678130201e-05 -8.849999976974296922e-04 4.370000186333828653e-04 -2.019999663422596722e-04 6.079999977895961900e-04 -6.179999771008369168e-04 -2.730000463319566853e-04 4.080000036839639380e-04 2.230000097117317980e-04 -7.899998245821265072e-05 6.769999988479834512e-04 -3.349999921117961408e-04 -4.000002445612565869e-05 8.810000018891065484e-04 6.990001029495853486e-04 -1.323999946625019006e-03 5.099999974641335546e-04 -2.170000270226574569e-04 2.929999827082227439e-04 -8.809999990948621119e-04 -8.800000543203177522e-05 1.269999940996878842e-04 7.560000003588900541e-04 8.489998895578243412e-04 1.450000064069242867e-03 -1.410000061347282084e-04 4.155000086866775764e-03 3.020003340963979218e-04 1.987499997676334118e-02 1.631600062645081201e-02 -5.056998721864345257e-03 4.420199991498935388e-02 -1.293999920826839969e-02 -7.228000934306377974e-03 4.439900007864681225e-02 3.376000255561304418e-03 -1.910999724579836049e-03 2.011499998327382147e-02 -1.879998527942710728e-04 -4.709999940261906724e-04 2.021500000150820361e-02 -2.109998942464902697e-04 3.600000367194425321e-05 1.965200000112872838e-02 5.199995969912360477e-05 1.993000023916299043e-03 2.000599999772220694e-02 4.800011769435682510e-05 -1.339999769056320880e-04 1.948599999986889639e-02 1.664000191848089612e-03 -1.071999854105786659e-03 2.006799999188575365e-02 2.340000938783222395e-04 2.090000375461624526e-04 1.987099999849958887e-02 1.341000013138570271e-03 1.314000121781278485e-03 2.038399999128534881e-02 1.040001157450238427e-04 -3.399997165448015294e-05 2.050299999945989771e-02 2.989700130723826899e-02 -1.731699773932563954e-02 -4.440001477295753762e-04 2.159999219373062371e-03 1.355200020757260822e-02 4.426099997454033957e-02 3.971000125725982280e-03 -2.309996800822726036e-04 1.961199997831139519e-02 3.080899903818825475e-02 1.561500236975097225e-02 3.970299981434131931e-02 3.473899874534763788e-02 1.656900262704178589e-02 -2.780002083046438600e-04 2.081999157233908361e-03 8.810000170121115018e-04 -1.406080000123723639e-01 -9.180000662988983167e-04 -6.130000898156522495e-04 -2.040999999432046089e-02 3.082600100107058677e-02 -1.616999770877148787e-02 -4.019500015400323534e-02 -3.290001298642365800e-04 2.319999547924975463e-04 -2.034799999841570978e-02 2.492999989422960746e-03 -1.353999831898776039e-03 -2.046800001240852221e-02 -5.779999094854094488e-04 -2.680000064013457819e-03 -2.032199999413253355e-02 1.671999968670861373e-03 -1.060999893736504912e-03 -2.021300000816938711e-02 7.499990146959216171e-05 -2.150000151003739353e-04 -2.079600000019922804e-02 5.399998831033842473e-04 5.200002039832334028e-05 -2.046500000303266495e-02 -2.080001470365895155e-04 4.429999637240051311e-04 -2.056799999929437295e-02 -7.030000985718456302e-04 -2.100000738797829153e-04 -2.073499999590977874e-02 5.505999870842204907e-03 2.420003963597532331e-04 -2.008300003063405101e-02 -2.082000293930564433e-03 2.402999822235624052e-03 -2.032499999090795970e-02 3.734999727567278691e-03 2.107000262016014286e-03 -2.048600002272129433e-02 3.800999897439345711e-03 -1.249997327995991457e-04 -2.029300002085611052e-02
