1.637872392617549869e-03 1.096784293330562050e-03 1.259420512626319155e-01 4.352499294632787151e-04 4.017557542813660759e-02 -2.992255190516023011e-02 -2.084152377839856764e-03 1.972055223631661702e-03 3.779887175682833736e-03 -9.781432097067071889e-04 -4.594938509662509018e-05 3.515960823916259703e-03 -1.239084117909723497e-02 1.754130736236769045e-02 2.099424675698876794e-02 1.336420682824268624e-02 1.761727049485109498e-02 1.981729444609432039e-02 4.688536140758859305e-04 8.390508287092786474e-04 3.611007199578845049e-03 -1.042100810599055341e-03 1.680036373623402168e-03 2.507933747899078556e-03 5.738695252327816014e-04 3.216045854915652868e-03 3.265977775045161933e-03 3.988412569476830727e-05 2.204031868353963265e-05 2.846001314277611226e-03 6.287231976638275573e-05 2.604441223488013600e-05 3.136002193876549510e-03 -1.101281288279259746e-04 -2.695531052348824867e-05 3.145995900581473933e-03 3.872571192518807353e-06 3.504437336397384426e-05 3.129999663752039939e-03 -3.612605523577362308e-05 2.104392264018910115e-05 3.095998233438289945e-03 2.286871988561320286e-05 -4.695432296971778773e-05 3.223001599938363389e-03 6.787200026410356176e-05 3.404452174145577222e-05 3.144002284051260719e-03 -1.312589469722892051e-05 7.004386209295165215e-05 3.092998475310244737e-03 -6.512468162322681002e-05 1.110434916485529653e-04 3.063995776564642799e-03 3.688788298456636494e-05 3.603901667394332519e-05 2.754000993711892657e-03 -1.611930815507684370e-05 -4.695846070470449511e-05 2.929000012098471710e-03 -2.712599652518932455e-05 -7.956112759443493911e-06 3.093999011082950151e-03 3.687669648218421973e-05 -9.570986063971273075e-07 3.028001518034430673e-03 -5.412897225841030403e-05 -1.195505663908252477e-05 3.166997968263163179e-03 2.871253213590270944e-06 -3.595518633421611353e-05 3.161000629623577848e-03 8.487286479052584792e-05 4.604421069560875486e-05 3.123002806192089371e-03 -4.413103100735468504e-05 1.104565859620077743e-05 3.217998049335704918e-03 -4.412840528425677225e-05 3.604475121477724876e-05 3.153997694951112679e-03 5.471671511835123113e-04 8.739416127855485815e-04 -4.087990113259510824e-03 -9.558515511724907524e-04 4.419491838580303831e-04 -3.637045192324170687e-03 4.231506933987044610e-04 3.394721094635453295e-05 -3.699983253684421564e-03 -9.588391553705927607e-04 -7.320554498137123297e-04 -3.964028669488434825e-03 -4.087720602646510259e-05 -1.117043025749069182e-03 -3.036985830169912706e-03 1.004133556345451414e-03 -2.690473601587904467e-04 -3.284955299393375536e-03 1.771335738611285653e-04 5.319534999652109899e-04 -3.270000331939729946e-03 3.510926748034004735e-05 3.809620327763333400e-04 -2.676003974010486564e-03 -2.039002156006963903e-04 3.349655091655762400e-04 -2.444013054332450953e-03 -4.656536954557746397e-03 3.695843436952894745e-03 -1.130024202751296267e-02 4.101499352509369229e-04 1.404947858987883351e-03 -3.655003220811031336e-03 4.246432064411732529e-03 3.766847269411027592e-03 -1.053788049710503195e-02 -1.471628195108468443e-03 -5.532129807167739111e-03 -9.236981501118643120e-03 -1.201749893236649363e-03 -1.769086620724448196e-03 -6.176023860258269237e-03 2.672200363256521660e-03 -1.327072215407818206e-03 -4.945872375395901459e-03 -1.378788003706482264e-04 2.044958467662328066e-03 -2.937034610273513840e-03 -8.648601153272609350e-04 -1.549048448613101880e-03 -3.465013258959546809e-03 1.007276759100033140e-03 -7.709716912224570543e-05 -6.797957896095729174e-03 -8.701733419059408185e-07 1.095480197026928350e-05 -3.188000193712689414e-03 -2.186920072576919037e-05 4.954478146704710961e-06 -3.212000963761672042e-03 2.613057755806671260e-05 -1.220455168909216268e-04 -3.208997208587646612e-03 -3.872673007109494484e-06 -6.104434500576203047e-05 -3.127999295132049239e-03 6.213017585478525890e-05 -1.104537495642895649e-05 -3.196997316379906681e-03 -4.787217567624607741e-05 1.955533483968713647e-06 -3.139001980038370974e-03 -9.869943138705357936e-06 -5.904529022027604887e-05 -3.194999567750399661e-03 3.213254236484750832e-05 -5.704618795183338668e-05 -3.255997885773474591e-03 -1.286742865557310091e-05 -1.240461810658427099e-04 -3.257998768299763016e-03 -1.239961924861226865e-04 2.599877855393345786e-05 -9.300541792093595743e-05 2.639979754926401428e-04 1.500050217727082476e-05 5.001053759176286466e-05 -1.600093366183169801e-04 1.410034145136948038e-04 2.319914853835056275e-04 -6.700535805654552650e-05 -3.939981894529127806e-04 1.240028576265110778e-04 -7.499958893643403563e-05 -2.550001539165118241e-04 -1.499943872020563480e-05 1.550062098370166722e-04 7.799773778063269437e-05 -1.509947939932580209e-04 -2.899495380102388699e-05 -1.600017778569927948e-04 -1.269989123444686290e-04 2.101413403193398130e-05 4.995063861585630876e-06 -3.469992154283732359e-04 2.600320984765379186e-05 -6.100115457537961025e-05 -7.999807633993159784e-05 -1.576039244513664306e-03 9.470151565015200211e-04 9.819223966837712075e-04 2.325970792209517725e-03 -8.429918825295250112e-04 7.011066679026516481e-04 -7.627079063561015542e-04 1.588989426172836348e-04 -7.170033317608573258e-03 6.641610974611134900e-03 -1.761218405386614626e-03 -1.503770459180696697e-02 -8.310702313695671542e-03 -1.858097642416378517e-03 -7.346312081880278406e-03 1.688317422333398881e-03 -1.449112234444561867e-03 -7.822910712351803172e-03 5.139897586288259520e-04 -9.089970847642714867e-04 2.340338178869395987e-04 -9.146504624439107806e-04 1.415023104669547310e-02 1.624576215068676208e-02 3.969987020047656477e-04 1.462000539670861576e-03 5.999543823192835001e-05 1.109933311180378814e-04 6.400225241720969413e-05 1.650036124842283120e-04 -1.670024477633691321e-04 9.800100977379102847e-05 6.199181013940863877e-05 5.899610803900364906e-05 1.260013432144701519e-04 9.800061604091836118e-05 9.499558169757509876e-05 -2.599854318011448468e-05 1.080042370023096010e-04 -6.900182224407920561e-05 -9.099933631889078759e-05 4.299848039777573564e-05 -3.300767192061385212e-05 3.100270543907163824e-05 1.889982165255515935e-04 -2.500575883134200289e-05 3.000203281882113184e-05 1.419985565138150976e-04 -4.000739864751159930e-05 -3.599740249556380940e-05 1.809988813971828638e-04 6.799529743268099857e-05 -7.699843696730471708e-05 1.140038605996886932e-04 3.541893766943526867e-02 -9.508008634491978139e-03 1.348577092748576940e-03 -5.376058257447223661e-03 7.940374829552484040e-03 2.614066852968268892e-02 -3.006191348638648925e-02 -1.637301103956186402e-02 -2.439992015437729422e-03 1.312956420507692358e-04 3.311490599455043510e-02 -6.623464156048990484e-03 -3.059516473216645311e-04 -1.287267035315305119e-01 2.089481262167615025e-02 1.532594459085930808e-04 -1.772742765061236046e-03 1.815203139131163143e-02 -1.229056340652966628e-04 9.323156648007693056e-04 2.225798179768961188e-02 -5.674916018496519755e-03 7.993325554801583924e-03 2.264865560597289704e-02 5.804083655035235934e-03 8.420316793590390189e-03 2.266511698670299266e-02 1.781467204820425009e-04 -1.870305863035557912e-05 2.095400753893105275e-02 -1.086527396183269168e-05 5.630128597578454525e-05 2.124999877908276963e-02 -1.618462400656165237e-04 -1.297052735146610397e-04 2.077899526773609520e-02 9.915901363973291525e-05 1.832927782229585884e-04 2.065600145835261303e-02 -3.848654504806023234e-06 -1.967045749091682241e-04 2.083700265148680925e-02 -7.184828161731485663e-05 -3.270460674873491093e-05 2.083099755732130062e-02 4.514287794549541957e-05 -3.770162177718728376e-05 2.104800239234797671e-02 -3.284907099211010931e-05 -7.043537329036951790e-07 2.085099869172747297e-02 -8.442573402212102277e-07 1.029394823025752900e-05 2.073299983894900250e-02 3.314066108284135300e-05 9.529919573969437439e-05 2.110500001800223388e-02 1.515251553867347295e-05 4.929506992201644091e-05 2.081299993747547789e-02 -5.885937255949510197e-05 2.992536071224423096e-07 2.110399761857239057e-02 9.135552167000526069e-06 1.930097258588882759e-05 2.122900011809656165e-02 -5.285019326175880697e-05 -2.377040119597949026e-04 2.087400123741901120e-02 4.614437207857064230e-05 -5.370214713699888927e-05 2.101100265994743782e-02 3.815072061838019297e-05 -5.870435260860224120e-05 2.085500240521446363e-02 -1.208449620321491849e-04 -5.705716786069600666e-06 2.074999517927528236e-02 5.215298221800816530e-05 2.129487082043703730e-05 2.080100184113550105e-02 -9.299871700971732835e-04 7.764811301307922721e-05 -2.487103899385790032e-02 -5.782563825332030045e-04 4.122742672263834431e-03 -1.818208201538961538e-02 1.507894692147341903e-03 3.316874047161704592e-04 -2.196494332027620899e-02 6.287021714572476770e-05 -9.713032973128976838e-04 -2.138898368881572351e-02 -2.536068618630653044e-03 -6.603224723191040459e-04 -2.288509393020153257e-02 2.476933593675317413e-03 -1.432699301136327502e-05 -2.292689895537104380e-02 8.186171525942874654e-05 1.014700189525418470e-03 -2.114201107238741079e-02 -5.761204784175627883e-04 6.126943956584788523e-04 -2.158703216683285908e-02 5.208128301322546578e-04 -9.852836794100590205e-04 -1.997996484148702873e-02 1.302931547596732374e-05 -1.373584240489248755e-04 -2.527999754549594552e-02 -9.217375648152695614e-05 -8.612878355849998150e-04 -2.030699156110745210e-02 8.084829183043955672e-05 -1.513295825476236849e-03 -2.086097527198343266e-02 1.254866308689302082e-03 1.005697668980958795e-03 -2.125496317912413391e-02 -7.441595995358193071e-04 1.666708435512828960e-03 -2.060605395221047631e-02 -5.130474446473398719e-04 1.055669038920338055e-03 -2.337203588050912328e-02 -5.817815585265080348e-05 -7.072862884871086633e-04 -2.019599236007727297e-02 1.185867453999536053e-03 -1.482303354253935133e-03 -2.133093071451670417e-02 -1.121190170153544023e-03 5.367190664291165026e-04 -1.987705328377630670e-02 1.468510184706989631e-04 4.370359811062495659e-05 -2.089799465915058094e-02 3.184815006010767479e-05 -3.129533356937619289e-05 -2.082899827878034391e-02 -1.861534676226547281e-04 -1.729459576581103084e-05 -2.078900735445175785e-02 2.684963646234969829e-05 1.507042024600099242e-04 -2.086200106270687249e-02 -9.815223274969231339e-05 -2.950900050474432640e-07 -2.081900401201095333e-02 3.684961127977883524e-05 -8.929586205693834352e-05 -2.086599725283140930e-02 1.288461445469839262e-04 1.117053277109395366e-04 -2.077699635632630076e-02 -3.715329227573689212e-05 1.027052592000736225e-04 -2.079100298837470093e-02 -9.614916372551005497e-05 1.747038876100520655e-04 -2.089100641161092606e-02
1.644875488962732136e-03 1.098783210336939800e-03 1.258660515193929796e-01 4.442513758167173179e-04 4.015057491069153051e-02 -2.995855118419501681e-02 -2.113151207097898471e-03 1.959054835183795390e-03 3.750886179116034655e-03 -9.751433765104227042e-04 -5.094933073392804722e-05 3.519961016963911882e-03 -1.238183973350238769e-02 1.756730685909526496e-02 2.095924675488711544e-02 1.334920689872677764e-02 1.760327047824185656e-02 1.981529403377210036e-02 4.808529343488286505e-04 8.550510603342329537e-04 3.628007461369039694e-03 -1.018099826266639267e-03 1.689036014563498290e-03 2.483934597621944695e-03 5.328691908807587328e-04 3.205046000441967233e-03 3.273976261438227460e-03 3.888475453038808252e-05 4.504010679728668096e-05 2.831000947482144574e-03 1.587121720839029958e-05 2.204483183657751904e-05 3.163000336682501770e-03 -6.412871303717997964e-05 7.044866122191438571e-06 3.160997291682724007e-03 1.887335192819940903e-05 4.404409224001230703e-05 3.111000146982598018e-03 -7.812657751969758195e-05 3.004413983646007116e-05 3.108996395550587231e-03 5.186952019901937971e-05 -1.295461505814580212e-05 3.204002298816749621e-03 6.987275671978824187e-05 1.204425079956941108e-05 3.125002677421421897e-03 -2.612692056816319250e-05 8.044212545240720066e-06 3.116998824938205150e-03 -5.112432455016015757e-05 9.904335308765825304e-05 3.054996516798086890e-03 -2.114601762882522657e-06 -1.696010211614179257e-05 2.814000156964386896e-03 5.878185940359338619e-06 -2.295759890972688002e-05 2.991000567633237892e-03 -1.212726907012601029e-05 -2.095568499141902660e-05 3.124999806177824416e-03 -1.267326569972807071e-07 -1.195587869961992232e-05 3.112000167240251778e-03 8.683526577077349050e-07 4.045836029009889551e-06 3.232999981004406036e-03 -8.130714673374838446e-06 -9.544830128140043021e-07 3.209999685426943774e-03 9.871303356487644214e-06 2.804480817835885843e-05 3.161000007292673591e-03 -1.713276713797271845e-05 3.004624709858976867e-05 3.260998879381206503e-03 -8.128317603847258439e-06 4.404469467051840855e-05 3.151999047481504352e-03 5.561680752431736761e-04 9.099412938234560655e-04 -4.109990257150884785e-03 -9.948508760994996189e-04 4.719489875471302547e-04 -3.653047205755394471e-03 4.481534522336161862e-04 7.294624145522964650e-05 -3.766982788533635839e-03 -9.308383480291770049e-04 -7.410557552926046220e-04 -3.984027401686140307e-03 -4.487722091104376165e-05 -1.136043022615169278e-03 -3.036985723675811408e-03 9.821349534094346925e-04 -2.530478249795303867e-04 -3.318956422064709214e-03 1.581346631531121093e-04 5.189531320429737263e-04 -3.297000921299877117e-03 2.311053294564583682e-05 3.329615884876746057e-04 -2.708003782098306316e-03 -1.728977582966656479e-04 3.009646200506058307e-04 -2.505011309885402625e-03 -4.683536353150615818e-03 3.631843231255516957e-03 -1.131624221958420738e-02 4.411516634977148644e-04 1.375947225072725408e-03 -3.698001547269533316e-03 4.248432041686442395e-03 3.737847267847958527e-03 -1.053788000450819017e-02 -1.523626930368578766e-03 -5.529130205963898002e-03 -9.267983661107374177e-03 -1.147748192384056903e-03 -1.729087244299883086e-03 -6.217022228404734362e-03 2.672199580966234857e-03 -1.286071931856044327e-03 -4.925872956702795520e-03 -1.758799052868257424e-04 2.037958880217362410e-03 -2.910036058446611226e-03 -8.458597128110790630e-04 -1.503048591094824447e-03 -3.474013137432128799e-03 1.030275291563569496e-03 -7.909667673032259373e-05 -6.761956931194090976e-03 -3.887052885290133707e-05 -2.704505484968304955e-05 -3.180001202357457188e-03 3.130226027441701615e-06 9.546570613391426015e-07 -3.197999889042354472e-03 4.512847648868943256e-05 -1.530448086971599039e-04 -3.157995995428217531e-03 -9.873053594015966124e-06 -7.904421270581221670e-05 -3.118999284265779656e-03 3.712994722194991369e-05 8.954729683230892073e-06 -3.190998617962031384e-03 -1.987206372340457987e-05 -1.104453097199919193e-05 -3.142000655540825877e-03 -4.086981546545951293e-05 -5.204530848148698481e-05 -3.198000929338339678e-03 7.213169267904566385e-05 -5.004592153868267013e-05 -3.234996356203295557e-03 -2.386835736505377417e-05 -6.204583219204660343e-05 -3.234000095272770471e-03 -1.360005785732887784e-04 4.100031915027438497e-05 1.499388066200200755e-05 2.789962659884921334e-04 1.600108589963292481e-05 9.201113418772300984e-05 -1.470081854755499976e-04 1.550030073550632474e-04 2.039918162919103603e-04 -6.901018189479042673e-05 -3.659965007320949452e-04 2.430023790968095288e-04 -1.170044495444755311e-04 -2.219984196985564783e-04 1.049983830263012414e-04 1.920037618544872637e-04 7.199855947810159418e-05 -9.099320231096179399e-05 -1.099938849462821222e-05 -2.070002607442862055e-04 -1.899751311466220415e-05 3.001254980459506017e-05 -4.200440442441783000e-05 -3.089981826211549588e-04 -1.299862490852057510e-05 -6.400048603743574590e-05 -3.499962196166666640e-05 -1.575035745656546728e-03 9.430139364285257918e-04 8.959224941956215509e-04 2.304973104695507563e-03 -8.539926742198325569e-04 6.441059687731635376e-04 -7.357117169238210942e-04 1.289002400143805652e-04 -7.077031792899141430e-03 6.614612682558088791e-03 -1.764218979712821192e-03 -1.507970564869761353e-02 -8.247700646519222009e-03 -1.809098258861890776e-03 -7.386310211139884320e-03 1.664315600101959206e-03 -1.436111577653173240e-03 -7.777911874004986639e-03 5.089928354196049083e-04 -8.799981441868665478e-04 1.590332031972633436e-04 -8.716448720208539412e-04 1.406122904232205879e-02 1.610676516363352198e-02 3.669965375565391254e-04 1.454001314584706930e-03 1.129943299792338747e-04 4.699430687915146903e-05 1.000194808952340809e-05 1.400017719722240230e-04 -1.020027164330983429e-04 6.700104394893824312e-05 6.799489649982111568e-05 5.799566243633207579e-05 7.700148578035970789e-05 1.080012700211811533e-04 6.299692786255674411e-05 -2.299898599178691738e-05 7.500289143246020830e-05 -3.800118324854490971e-05 -5.499957326233127460e-05 2.799923235861950826e-05 -2.800611669710554384e-05 4.100216276685894227e-05 1.509982783874972247e-04 -3.700254892718968236e-05 2.100092216984861290e-05 6.299819553691117545e-05 -2.600609478368802384e-05 1.700214702549074128e-05 1.499987000964522559e-04 6.199785739054501871e-05 -3.199931129717681409e-05 5.200297833286106125e-05 3.529193764767547814e-02 -9.380008492530983455e-03 1.351570106443972632e-03 -5.371048410060250307e-03 7.931371394611934703e-03 2.589866886111177532e-02 -2.992391570964214251e-02 -1.624801033949360013e-02 -2.382988168233695584e-03 2.052929911170001966e-04 3.290190680147572072e-02 -6.562458122899094727e-03 -2.919455639818502595e-04 -1.281347054990878975e-01 2.075680479866037764e-02 6.726564727622419708e-05 -1.809744866922527104e-03 1.799902841403791184e-02 -7.390030121806141956e-05 9.823137833155199360e-04 2.212798308424398716e-02 -5.657911063130295105e-03 7.925323797628676392e-03 2.252565726242962418e-02 5.735087234558554695e-03 8.311315571626530507e-03 2.257511572242414805e-02 1.401516821624719164e-04 -7.870477273928263391e-05 2.083100684231885616e-02 4.139643844485842373e-06 4.429955871881299296e-05 2.112899956014117550e-02 -1.398402306381583277e-04 -1.517073890520723807e-04 2.063099647564319711e-02 5.316088056793794909e-05 1.752921620630015428e-04 2.060999969865832948e-02 2.915517716963359637e-05 -1.397059192887564240e-04 2.074400318722882663e-02 -7.384355562251295542e-05 2.229376436524599882e-05 2.071599669620951059e-02 -2.485314624202171447e-05 -5.670295638948654078e-05 2.094999981135700282e-02 1.715435813628920182e-05 1.029441618136907110e-05 2.076700057189271795e-02 1.316168397294141487e-05 5.291867310692373520e-06 2.058700048006545727e-02 -6.184996210011551503e-05 5.729599505743111873e-05 2.087399668849112752e-02 2.515991967110016013e-05 4.029248173420608742e-05 2.063100047245304547e-02 3.314944889858630934e-05 -1.870389500820230649e-05 2.088700163446991984e-02 -4.852868239909702621e-06 -1.370305712051673205e-05 2.094400001613577755e-02 -7.084396214975305752e-05 -1.847061528961023034e-04 2.072199975316352596e-02 7.615210120253726163e-05 -1.170485023444129998e-05 2.082200328628260044e-02 -6.838958190991554802e-06 -8.670791853097475921e-05 2.060100096998965929e-02 -5.083511861695325882e-05 -1.970920262086705584e-05 2.050799822844850961e-02 5.016059312386297940e-05 6.829223531175364641e-05 2.061500109351182067e-02 -8.639967802451750147e-04 1.296514214675918068e-04 -2.463403704374574066e-02 -5.372706254583304837e-04 4.134747602388159568e-03 -1.783208051629324095e-02 1.404880215986636623e-03 3.576925326573027089e-04 -2.160894788347665976e-02 7.186125933703116093e-05 -9.703001852449839610e-04 -2.116898333671033902e-02 -2.489080939086949114e-03 -6.893182274228002804e-04 -2.258309160544712951e-02 2.416922003907185507e-03 -9.832293370703796794e-05 -2.264390020795305561e-02 1.318532053459698283e-04 1.015703113534740815e-03 -2.093300905071690185e-02 -5.921354315469036077e-04 6.536996256109775093e-04 -2.121903339999687069e-02 4.718029561402753056e-04 -1.010280210014249166e-03 -1.973796648258960632e-02 -3.198333696431355030e-05 -2.263540078663584248e-04 -2.497099811640054318e-02 -1.111834245434677594e-04 -8.832844605683537681e-04 -2.006999202311314512e-02 1.448378782123438391e-04 -1.499292246073789109e-03 -2.060497286457562555e-02 1.163856393252725527e-03 1.031701199613056438e-03 -2.101096725357025699e-02 -7.071699520377704553e-04 1.706712021875756401e-03 -2.035105301288657464e-02 -4.580599451573041741e-04 1.160673376783731255e-03 -2.306303512981472056e-02 -1.301902044851177749e-04 -7.532820496571159593e-04 -1.990099464007566779e-02 1.180857961346519318e-03 -1.488300046912029726e-03 -2.109793083327097390e-02 -1.049202636275318838e-03 5.297233484594800852e-04 -1.957105025291513978e-02 1.278469636160918228e-04 1.370501659231721989e-05 -2.079899500760588188e-02 6.845831343682486254e-06 -2.829450586043902435e-05 -2.077199933938789558e-02 -1.401552679970760173e-04 -2.829400795952929335e-05 -2.074500532537811026e-02 2.884542732627346989e-05 1.317056612088554363e-04 -2.075900071198341287e-02 -7.515512629912981331e-05 -3.294101390185806526e-06 -2.074800303296408729e-02 3.084704432966886697e-05 -3.929494998509873779e-05 -2.080199820610418790e-02 7.984451888831801774e-05 1.157059331891624639e-04 -2.073699840839623998e-02 -3.115610515296801615e-05 9.870623277038001074e-05 -2.072200268740268317e-02 -4.815110896275997127e-05 1.867045305592042838e-04 -2.084300462718785552e-02