-4.702365715399999999e+02
-4.702365721499999722e+02
-4.702365732800000160e+02
-4.702365750199999752e+02
-4.702365773999999874e+02
-4.702365803499999970e+02
