-2.977112618873243525e-03 1.638301141063573359e-03 -1.199901445695676083e-01 -3.510095278809929106e-03 -2.539964770098254720e-03 2.290893079202077631e-03 -9.477103844785828707e-03 -8.499566529262899848e-04 2.533626137237312420e-03 -3.111592642624739016e-02 -1.270135287700723502e-02 -2.660908701421564604e-02 -3.240104638092989198e-03 6.703898801266968863e-05 2.570867112142232250e-03 -3.324737474769526302e-02 1.351350837290398767e-02 3.401945457884018170e-02 3.638962418303035040e-04 8.300360667730370028e-04 2.564003052462638429e-03 -5.371524596378333787e-04 -9.889467671436338696e-04 3.724992151248265534e-03 -1.080100999233879521e-03 1.803036502609423747e-03 2.514930456635322727e-03 -8.613939439121063115e-05 4.304861210465818407e-05 3.423995885180029959e-03 -1.211213111999039484e-04 -4.957669604574042959e-06 2.978995140896558650e-03 7.587644039617657459e-05 3.604297009759030972e-05 3.035002581563868863e-03 -5.312491978955706127e-05 -8.895648937164788025e-05 3.065999100765690738e-03 -1.612382033258323572e-05 -3.695688697042729098e-05 3.039999870217651671e-03 -4.311857354045323137e-05 5.904133358077988722e-05 2.912997409807437186e-03 -6.612374430946630504e-05 8.043137997048625405e-06 3.038997196176668972e-03 -1.244194048515026147e-07 -2.195668683294751210e-05 3.055000309070873051e-03 4.087658842066936696e-05 1.704294079318973112e-05 3.031001425715303902e-03 -1.913587445733057750e-05 1.404732617864266851e-05 3.336999024713070347e-03 -2.512423534427230440e-05 5.043276028053026305e-06 3.050998908253699758e-03 3.876589234930654568e-06 1.804296976394669102e-05 3.030999904866049210e-03 -5.118091999032995803e-06 -1.958880478264258731e-06 2.899999822055435768e-03 -2.712384067138918207e-05 -1.095686418229531037e-05 3.040999053665509062e-03 1.087026182745334690e-05 -1.954838156728872944e-06 3.186000473323188833e-03 -1.512359243843448070e-05 -5.956958645525419309e-06 3.034999471432482925e-03 1.879203181103736486e-06 -2.395795022252552640e-05 2.966000418950836583e-03 1.687781006577530703e-05 1.704253425123657687e-05 3.001000448442765322e-03 6.280980958578175630e-04 -2.600347168933817596e-04 -2.413970738842946551e-03 2.130981185417773311e-04 5.999658348080508588e-04 -2.397999830887615272e-03 -2.278828102595420490e-04 -6.820408094145181260e-04 -2.890999612431900765e-03 -6.738787417076671149e-04 9.759585755445373450e-04 -2.959041280600114687e-03 -6.468974481580180846e-04 -4.470353206453072672e-04 -2.527020006581307595e-03 1.057123890724402313e-03 2.395604351714878985e-05 -3.041957295498854633e-03 -3.498814283002910867e-04 -1.309041366004364991e-03 -2.936995690875281867e-03 -2.668836964079993957e-04 -9.804031106929491897e-05 -2.858009480389635953e-03 -1.898771178770120775e-04 1.177957686153400900e-03 -2.995024435582929311e-03 3.011816920107493294e-03 -2.489939295299625505e-03 4.448157949699742784e-03 1.758175774886661840e-03 2.919375029875100752e-04 -4.310932548643170784e-03 -2.552226568493982245e-03 -2.961919924376141093e-03 5.506938069804041304e-03 -5.017334141569576594e-05 3.491061343585025612e-03 4.323948465365596086e-03 1.113995728329948438e-03 2.137001197484971002e-03 1.460150650118931573e-04 -7.400221891213852566e-05 6.500010077884774227e-04 6.698777104848059811e-05 -6.848200427608932888e-04 -9.730623846053656914e-04 -4.438014094693603327e-03 -2.301868019447560632e-03 1.069558805671826557e-04 -3.239095253408992570e-03 -8.340493249076164463e-04 -2.759822485321739276e-04 1.205969950751790108e-03 1.991219368107258832e-04 -2.804261831052515234e-05 -2.994991496789103144e-03 2.812340446994064530e-05 -2.604299481901718830e-05 -3.030998488376705855e-03 -8.805148931031766623e-07 -3.904161104246325155e-05 -2.934999485059704843e-03 4.112099179310507361e-05 6.495785983837608563e-05 -2.969999249238822366e-03 -2.878060671014873664e-06 -2.504246014560408961e-05 -2.994999764934319370e-03 7.012080927137392592e-05 -1.204212032736385234e-05 -2.966996976649141724e-03 6.312240914354248777e-05 2.957332218077902280e-06 -3.005997474325297191e-03 7.121191482655982885e-06 7.957801399219473814e-06 -2.975999825609664841e-03 3.711947258816645741e-05 4.895838755040214446e-05 -2.932999185312406415e-03 4.099360838624109663e-05 5.400220798338117764e-05 1.580009038087919866e-04 -9.099966793917925456e-05 -9.600007051562554059e-05 -1.000234452286277873e-05 -1.129892404014834679e-04 -4.040037678410453585e-04 -2.719988733868846449e-04 3.560055691068958906e-04 9.199780724171980587e-05 -1.349868076057456772e-04 1.160105426085411562e-04 -1.610038053937086239e-04 -2.619929935177974997e-04 -1.020041376696873442e-04 2.280015826889313947e-04 1.059926138445781521e-04 4.499913630565367470e-05 1.970003191901972134e-04 2.499903939565725070e-05 3.799771884284999329e-05 5.100077837534039172e-05 5.700082427341849874e-05 3.459973473983937579e-04 4.500066481328750614e-05 6.601345135377684268e-05 2.511992908472592077e-03 -2.129995566396591282e-04 1.701053104835917567e-04 -2.839987409086015911e-03 -9.280024123364479004e-04 -3.271024899486949639e-04 9.086918998538773837e-04 -3.332894349586686296e-03 7.502084262765454370e-03 4.408674417421754727e-03 1.331110267732376782e-03 8.021160660173089207e-03 -8.800555603901936974e-03 -7.347801666122275553e-03 1.350274582216376244e-02 -1.099976930739783067e-02 9.613930917669922388e-03 -5.480584229286057305e-03 -3.540034966566066072e-04 2.345002134235428439e-03 1.309523378415967552e-04 4.800275976703153149e-04 -1.001010257660610607e-03 -6.969662614023032672e-04 4.794010515071514544e-03 -5.030075532820207614e-04 -2.677976525755905272e-04 -7.599497481860096725e-05 2.099831563676113423e-05 -1.230033924033770729e-04 5.400334457408904713e-05 5.899880931083528046e-05 -8.099863748678680093e-05 -2.299868589405197944e-05 1.179995926631549413e-04 -3.000260952777686224e-05 -1.279943639878532938e-04 -3.100187048692236837e-05 -1.390047726290612607e-04 -1.399900860888667411e-05 -3.400034347951030964e-05 -2.500008802471778875e-05 1.400909797432765342e-05 2.199682738746996645e-05 -2.229997416115802082e-04 -2.099580500245057149e-05 -1.030014722152102787e-04 -1.049993947306285025e-04 -1.099622235563738610e-05 -1.200130992080132723e-05 -9.300027770974801731e-05 5.700326151281121906e-05 -4.700119302746716502e-05 -8.099701248130593007e-05 -3.047279100933683246e-02 1.687765204673142422e-02 4.430651987564294264e-02 -1.441930096122986862e-03 -5.810676624005913643e-03 2.272902368710820464e-02 2.777832216546301941e-02 2.256656856695741370e-02 4.163781125112792775e-02 -1.110491003218404618e-02 -3.392133553740502017e-02 4.625302877148567554e-02 -1.103872927348974360e-02 3.992626662308682169e-04 1.791654484966213531e-02 1.291502463621072294e-01 -5.088389063599789951e-04 1.850026633793124681e-02 -1.539003301017940117e-03 -5.536650985517869300e-03 2.453201585080239458e-02 -1.014812792585648724e-03 4.528379692681083762e-05 1.996095805250189606e-02 -1.537614084541623349e-03 5.125216407704251582e-03 1.517886473690368936e-02 -3.786401232700938328e-05 1.593008959502316174e-04 2.122099621933710989e-02 -5.684820567309024832e-05 -3.970464684856230095e-05 2.082899826738027205e-02 1.081327933291684315e-04 1.883019016757030270e-04 2.130000175335279231e-02 -8.703289392277830426e-07 -1.586970204970589268e-04 2.137000223439887436e-02 -7.685042338762656437e-05 -6.370386558527008243e-05 2.088299779317937324e-02 2.141421816331791567e-04 -4.270151308051239923e-05 2.106500934504482864e-02 9.814499776091956779e-05 1.729761365090830345e-05 2.099700377082350244e-02 -4.385194494899211890e-05 -3.070335267124621107e-05 2.092099866906594122e-02 2.414426247147320696e-05 -3.770208737931035657e-05 2.101400153724171035e-02 1.001428583355225488e-04 -1.070165066690240174e-05 2.104900424919424126e-02 5.138821566140024204e-06 -1.770017267982094947e-05 2.114800047986570286e-02 -5.586280251542610309e-05 -1.169955780584577670e-05 2.118799791079001640e-02 -1.286066315233339441e-05 -3.570034289541526177e-05 2.113500000210221177e-02 5.813931254796374042e-05 3.729962986008916438e-05 2.113700185830404490e-02 8.113578467872146929e-05 4.300831144905589049e-06 2.122300326266986920e-02 -4.186601082910892642e-05 5.130156544948597642e-05 2.126799758760846565e-02 4.213166096117943154e-05 4.230230781305187836e-05 2.132500113570684822e-02 -2.186772508880747675e-05 -5.769788308763416641e-05 2.130799994736452471e-02 7.927701364940981836e-04 -9.042690057080476126e-04 -1.892995491479044362e-02 1.394818812227394209e-03 6.217139914650347213e-04 -2.009595203502120841e-02 9.858610537323694509e-04 -2.963006457711008651e-04 -2.115095567368172752e-02 -2.695255363987123128e-03 -1.699257611904343625e-03 -1.831908567836516497e-02 -9.481388533693449775e-04 6.517010952926213145e-04 -2.113504786834242977e-02 -2.623028308104464589e-03 2.505664424310499825e-03 -2.381414235885112238e-02 -2.041409837233279826e-04 -4.032990334607110109e-04 -2.110300261451848736e-02 6.184214574977797794e-05 -6.782934429916618593e-04 -2.069398788426734387e-02 -3.991363418696313673e-04 2.196996730256067744e-04 -2.120501938773627568e-02 2.357331801216242819e-04 5.374455896274011999e-05 -1.800399117946272290e-02 3.198657951316554652e-04 1.336698670427108023e-03 -2.123600594597729874e-02 -1.570108475565625905e-03 1.326691189924181485e-03 -2.186808276602076467e-02 -1.783115606153310318e-03 -1.343065590144335909e-04 -2.172107072598628008e-02 3.311889701886048566e-03 -6.303125332211964235e-04 -2.186085622094901745e-02 -6.662158416147979847e-04 -5.242726412720020773e-04 -1.926701971374906661e-02 -8.171092132738499688e-04 -7.053096972007778971e-04 -2.188902329398498964e-02 1.398155323686801476e-04 1.163716264249948715e-03 -2.000501082412175363e-02 1.217916813699826363e-03 -1.890320676179024035e-03 -2.255092362578786647e-02 -8.914421618672646488e-05 9.670213826811261369e-05 -2.101400502058507758e-02 -1.641396233638524750e-04 -7.029944761460229716e-05 -2.113000570685457519e-02 3.985856445202268954e-05 5.970105899745845854e-05 -2.108299924295389122e-02 -5.113880825720097260e-05 -6.929981964917600724e-05 -2.115000111955757031e-02 -9.613959366944049357e-05 -8.429951503472492464e-05 -2.113100273934708298e-02 -5.141366631131396193e-06 -8.298948294245433224e-06 -2.108600011130148943e-02 1.285870620129238493e-05 3.270102342989512678e-05 -2.108699995961354004e-02 -1.101407330078130837e-04 2.070092125049695771e-05 -2.110100479813205310e-02 -3.613881527184071782e-05 2.570019695189528806e-05 -2.114800185563419505e-02
-2.976115096576726314e-03 1.646302005125287876e-03 -1.199291446423255553e-01 -3.519095964004583053e-03 -2.530964522029674826e-03 2.307892585098743083e-03 -9.478104742994200235e-03 -8.529563402314935695e-04 2.555626139029300737e-03 -3.110592666431213904e-02 -1.269335279977122991e-02 -2.660308672043482092e-02 -3.242105092289158854e-03 5.903914553521748498e-05 2.581867144112412384e-03 -3.326837550805306076e-02 1.353050865872330345e-02 3.403845348266266307e-02 3.618960264741598928e-04 8.150361392295183164e-04 2.569003183682740284e-03 -5.501532435094666626e-04 -1.001946487585261315e-03 3.743991806170463617e-03 -1.068101329711993071e-03 1.797036606636437817e-03 2.522931030344680286e-03 -8.614032705266346011e-05 4.804893819344748239e-05 3.446995814269831690e-03 -1.091221639967765298e-04 -1.957381267127719875e-06 2.999995586993960042e-03 6.687526341714828207e-05 4.104338830011718472e-05 3.064002144160432855e-03 -5.512585715079200627e-05 -8.995616171626141203e-05 3.088999033480371512e-03 -2.112472637337181719e-05 -4.995657114263797263e-05 3.061999850903869645e-03 -3.511960959027891042e-05 3.604168176401338348e-05 2.937998061639566106e-03 -5.212464017955815233e-05 8.043438946600434095e-06 3.060997766248133283e-03 -1.012542958182291720e-05 -1.195632455910998556e-05 3.079999760061487204e-03 3.687533626440193854e-05 3.004338343552006674e-05 3.062001078492157177e-03 -2.113705457645861837e-05 1.504773890059970273e-05 3.365998929066646352e-03 -2.312566606034591180e-05 -1.956229314395893288e-06 3.085999088907210881e-03 4.875163221127368157e-06 1.704346520388905811e-05 3.065999959732128213e-03 -5.119194596007251798e-06 -5.958497677386206091e-06 2.926999878741390424e-03 -2.612489471261795441e-05 -4.956496343216892813e-06 3.066999009295609795e-03 1.186887575091658568e-05 -3.954356894481055749e-06 3.220000542367960645e-03 -8.124810151573187822e-06 -9.565387931416712137e-07 3.064999685561735528e-03 1.877781085997286364e-06 -1.995745400009106020e-05 3.001000362207247030e-03 1.087654850828484380e-05 1.804297846076896201e-05 3.032000189911077288e-03 6.380992328987500264e-04 -2.640351217012102281e-04 -2.441970274897353049e-03 2.190991373413747341e-04 6.009654756650889855e-04 -2.422999600717032007e-03 -2.438818736669513842e-04 -6.820411229758729585e-04 -2.914000263944138171e-03 -6.798777589175162422e-04 9.829582399747197052e-04 -2.983041624147255658e-03 -6.468965530831114223e-04 -4.480356325567043927e-04 -2.549019992383092827e-03 1.062124655013333731e-03 1.195577022526584536e-05 -3.060956921743775150e-03 -3.488804094965467862e-04 -1.308041721232345786e-03 -2.961995664308954019e-03 -2.618825084556246742e-04 -8.904072614124853148e-05 -2.887009404358293219e-03 -1.978760567778160785e-04 1.180957323794388060e-03 -3.021024803858859010e-03 3.017817210633411216e-03 -2.482939399242875718e-03 4.441158094787012178e-03 1.759176797608273798e-03 2.979371477590249222e-04 -4.335932592965659887e-03 -2.556226237238930308e-03 -2.954920034667225023e-03 5.498937807683730410e-03 -4.617304697025145256e-05 3.503061241207263386e-03 4.316948458122346621e-03 1.096996221695569710e-03 2.143001040661756361e-03 1.340142877019985447e-04 -6.000144287706946680e-05 6.530007274481168696e-04 4.798829862476819896e-05 -6.838190388450453511e-04 -9.910627398314311633e-04 -4.463013798749770368e-03 -2.305867302140592566e-03 8.695562850086697483e-05 -3.257095132720394352e-03 -8.340485551295237238e-04 -2.809825179097817801e-04 1.186970021658269661e-03 2.161229626533611747e-04 -1.804298606735199920e-05 -3.019990946289029515e-03 3.012426430736300862e-05 -2.004329411931699993e-05 -3.051998491982062939e-03 -1.787929560452349411e-05 -4.204202306508705308e-05 -2.965000134752995408e-03 4.412244990512241625e-05 5.495734708976266831e-05 -3.005998985265168674e-03 1.112277408210309857e-05 -5.104276883863180113e-05 -3.015998826201032271e-03 5.012213662063908317e-05 -3.304257253257068263e-05 -2.999997493302454781e-03 7.612372708753690944e-05 2.195686834776083068e-05 -3.037997214301991263e-03 -8.779369180253479661e-07 2.895750992736905507e-05 -2.997000449089985349e-03 3.112065349750319540e-05 4.895798109231354274e-05 -2.961999429610554478e-03 4.999011735656433403e-05 6.800342022540563998e-05 2.440010717278180588e-04 -9.700270867645441049e-05 -7.899900248471014444e-05 6.499717006033168989e-05 -1.029914119100660506e-04 -3.690030100735857549e-04 -2.179989624502931913e-04 3.520021180252679125e-04 1.049990154849997457e-04 -4.998715487909108661e-05 1.080058965215476127e-04 -1.660021828605638770e-04 -1.479932485017632657e-04 -9.600747129853026305e-05 2.350027405694685666e-04 1.879927588491135096e-04 3.999735945575510880e-05 1.640009327537053847e-04 6.799930361762334969e-05 1.899675642136325872e-05 1.800111934488748743e-05 8.000051842206094247e-05 3.609962251996412541e-04 1.600103587174350433e-05 9.301447329658497616e-05 2.489996849034419989e-03 -1.730009004861310048e-04 7.410384760356993734e-05 -2.817985714475471255e-03 -8.960030108551991519e-04 -3.681020477402878314e-04 9.056951833814916135e-04 -3.299895481464653908e-03 7.422083672811073674e-03 4.398682404174724184e-03 1.286107482541188306e-03 7.824160891147064270e-03 -8.748546701727590372e-03 -7.315804797600690759e-03 1.328474748616224367e-02 -1.092776650638885988e-02 9.498929854682322885e-03 -5.551579666875977245e-03 -3.430002037627034764e-04 2.338000977221752104e-03 4.995288509060076472e-05 4.880283345566677395e-04 -9.960105191254005168e-04 -7.149660065075789115e-04 4.730012236369905872e-03 -4.890080986390833153e-04 -3.098004571597073832e-04 -8.799451201649309898e-05 -1.200184509750257474e-05 -1.350034131762408828e-04 9.300385118903148059e-05 2.999859446556901128e-05 -9.399663820636792024e-05 -4.499708760157072158e-05 7.899904278118748103e-05 -7.000295241654226435e-05 -1.389952496507548146e-04 -1.800154996377721585e-05 -1.170054048897997836e-04 -3.999640561283681356e-06 -9.000124467266341409e-06 -9.000035275166876894e-06 1.800770641028828230e-05 1.299730630143499540e-05 -1.889994511599108872e-04 -1.399725998846796276e-05 -8.900096729696165389e-05 -6.899930820682476161e-05 4.004130823713753183e-06 2.299856490836502598e-05 -1.010001631112658426e-04 3.400303679618453420e-05 -2.200108995430369172e-05 -7.499830351054586795e-05 -3.020777428347783469e-02 1.686464601216485990e-02 4.389553085136147642e-02 -1.480916770139538386e-03 -5.693681201264351455e-03 2.240402044049880775e-02 2.757633661758591287e-02 2.250956367783323725e-02 4.128180383397946074e-02 -1.100489374855747986e-02 -3.377134124430451745e-02 4.585603071727531455e-02 -1.097571979738984002e-02 2.802592851321965414e-04 1.768154910244806519e-02 1.283942561176887043e-01 -5.838417312560067931e-04 1.825923661652409380e-02 -1.502994120811624494e-03 -5.461654189539452524e-03 2.430801625362900148e-02 -1.046804819893774104e-03 3.428104313590556586e-05 1.976495690557226320e-02 -1.521608631121607698e-03 5.069214481179583863e-03 1.504386618251755785e-02 -6.585845316302311656e-05 8.229896134612636575e-05 2.108299617096934947e-02 -3.384298091245052116e-05 -7.570649378944652988e-05 2.069999971447925025e-02 1.101385960097392647e-04 1.102998585150417134e-04 2.115600294079391167e-02 -7.866910733581486303e-06 -1.616982059505939499e-04 2.128600199196429080e-02 -4.184582350389992876e-05 -1.370548090825679847e-05 2.077099850962510486e-02 1.751459491392909568e-04 -1.570278690355764441e-05 2.097300737421754421e-02 4.814921869040931720e-05 5.129619248436609070e-05 2.089400125283273971e-02 1.015399635597582358e-05 1.629454926189556231e-05 2.077600020177181039e-02 3.151661169578205758e-06 -1.704637120981034967e-06 2.083300017187260725e-02 6.814847627083795226e-05 -1.270358214658391237e-05 2.091100297461082058e-02 1.214329771844152761e-05 -2.170173771788074869e-05 2.103800082172497046e-02 -2.585750099537175481e-05 -1.701424410135788653e-06 2.105799899075876461e-02 -1.985270769482911889e-05 -1.670310208645341203e-05 2.093999944786001724e-02 3.814504795938676189e-05 8.129766062422572449e-05 2.099700042019557455e-02 1.001424840372088919e-04 3.129849110681715046e-05 2.105900365371888433e-02 -2.885920343242915891e-05 8.299173405249819739e-06 2.109999872677953414e-02 5.513810343744606737e-05 1.300043368772374221e-06 2.116600224651402073e-02 -2.986048852625255802e-05 -7.270040046972739900e-05 2.112999983442963650e-02 8.317599147723167639e-04 -8.532654634456075977e-04 -1.867795404997744588e-02 1.408805419760859705e-03 6.277186449971580966e-04 -1.976695155030171180e-02 9.268487678412229772e-04 -2.812963178816401712e-04 -2.084895828915913490e-02 -2.653264726705848505e-03 -1.747254398070205222e-03 -1.809008328776964825e-02 -9.391497110031590346e-04 5.667048453699961331e-04 -2.087004629699121608e-02 -2.635039644993040359e-03 2.380668346790575703e-03 -2.353814107553747065e-02 -1.551507857078277149e-04 -3.362956408077991490e-04 -2.086100156933189814e-02 3.583077216976604241e-05 -5.902894386821361077e-04 -2.041299019091387390e-02 -4.311451445717130737e-04 2.627027746587426633e-04 -2.098802130064906374e-02 2.197239936301327188e-04 -2.925225267479266987e-05 -1.777999065445020482e-02 3.138565992539693616e-04 1.293701865133376361e-03 -2.101100558086773512e-02 -1.536118332412810114e-03 1.271694580156538992e-03 -2.162708060195887155e-02 -1.811124861489390569e-03 -9.730330455692843682e-05 -2.149307239095931202e-02 3.342879859195637370e-03 -5.633091122965584556e-04 -2.161785590873867638e-02 -6.672263170063441736e-04 -4.332689684491805495e-04 -1.900802104488715991e-02 -8.741209494478055725e-04 -7.163055693638234293e-04 -2.160102545938582738e-02 1.638053129850786853e-04 1.165719804084475392e-03 -1.975400987541018477e-02 1.240904109562240062e-03 -1.889316270715883130e-03 -2.223892270367608393e-02 -1.231503509010458352e-04 1.147043057352671591e-04 -2.086300666043412397e-02 -1.571444926318429371e-04 -4.829775176234966580e-05 -2.101000573383096995e-02 6.885384472839619979e-05 6.470268091432801916e-05 -2.096699813304585963e-02 -3.814731735639858543e-05 -6.729686666909674589e-05 -2.094100061873632387e-02 -9.614697822082400266e-05 -5.029693467939640172e-05 -2.094900322156022579e-02 1.852307553519588868e-06 2.570325795743054673e-05 -2.093000030844450673e-02 1.853133698940805151e-06 -1.129703977254205478e-05 -2.095099978384773465e-02 -9.314630631696135788e-05 -2.429716387573177590e-05 -2.096500346800465181e-02 -3.114477854081959334e-05 2.702262997356205595e-06 -2.100200132607710213e-02