-1.412880968389999907e+03
-1.412880969840000034e+03
-1.412880972550000024e+03
-1.412880976780000083e+03
-1.412880982650000078e+03
