-1.412881215930000053e+03
-1.412881216779999932e+03
-1.412881218279999985e+03
-1.412881220470000017e+03
-1.412881223509999927e+03
