-4.702363270399999919e+02
-4.702363284499999736e+02
-4.702363312100000030e+02
-4.702363354099999810e+02
-4.702363411499999870e+02
-4.702363485399999945e+02
