1.526079681898839455e-02 -1.545916352021242945e-01 2.657481322573837165e-02 5.389545312635388207e-04 -7.059847838554695687e-04 1.103031957014412789e-03 -1.626804356305307231e-02 7.973378253936956248e-03 2.578022453064078220e-02 -2.611105488578712927e-03 5.946040394739995558e-03 2.704809374361594968e-03 2.934890313267713748e-03 4.128037016516674512e-03 2.773060987312658213e-03 -3.300792418972371537e-04 -4.149722650020178311e-04 1.937992444089408836e-03 -2.154074811742816373e-03 3.366028652401169621e-03 1.901864563166768066e-03 -1.418077254592773522e-03 -1.049972277883701871e-03 1.876957142739900906e-03 3.543902666249696722e-03 -1.406462455325655295e-02 2.667734374086147900e-02 -1.912455798167485039e-05 9.043384752035750989e-06 3.058999095860315959e-03 1.986511223834625892e-05 7.804696954604729267e-05 3.313999705470783118e-03 -8.125414720566777896e-06 -4.495634029957088575e-05 3.079000309370313795e-03 2.786954529327656687e-05 1.904540373053597321e-05 3.204000867827891830e-03 6.486599858167769767e-05 -8.995342011672746892e-05 3.289003919796585230e-03 -1.001342823095586516e-04 1.230468650119144198e-04 3.299994180982306936e-03 2.486944188904578984e-05 -6.095457973461528001e-05 3.205001879885486377e-03 -4.913090886566896234e-05 -4.095439419475770180e-05 3.213998582978867900e-03 1.887554612713778355e-05 -1.395668753288560070e-05 3.056000969344007095e-03 -2.841339917509611381e-04 -1.299531610248319579e-04 3.287990275331014248e-03 1.487711230315818731e-05 -4.195723733209742051e-05 3.017001203474234047e-03 2.598641737679163472e-04 -1.839529631463009986e-04 3.332013193032346172e-03 3.487048436739938943e-05 3.340451571952860756e-04 3.186996686894161008e-03 -6.512165816955458513e-05 -3.195760002727395991e-05 2.986997804056398201e-03 1.987827128829519515e-05 -1.795763822776784690e-05 2.989001066838194946e-03 3.058720469312276773e-04 -2.179557496529970233e-04 3.138015548415798092e-03 -3.231293479257436245e-04 -2.395471841174857250e-05 3.175987184479007932e-03 9.867889982994661766e-06 2.970460699750279167e-04 3.249996193391566437e-03 -7.448683431465312477e-04 5.789549024171060073e-04 -3.222038542963963272e-03 6.311135296032827644e-04 8.839602191693568577e-04 -2.770986835709933135e-03 1.280033451713803434e-04 -2.000013194937469137e-04 -8.599195209841816899e-05 3.591000002577490638e-04 -8.960353426932261139e-04 -2.472972675639485696e-03 -2.158818380296665914e-04 1.949590818565488301e-04 -2.898011557673741204e-03 -1.298805636674425518e-04 -7.250416801003467526e-04 -2.946995012092605126e-03 -4.488692984364241477e-05 1.929607201888282201e-04 -2.773004566168872989e-03 1.030125079636779383e-03 3.459557385362903412e-04 -3.064962960180290380e-03 -9.778769055994881131e-04 -5.904210787698999628e-05 -3.024038985693242032e-03 -2.863748127859397277e-03 8.459147795961082829e-04 -6.169128613170799143e-03 -2.184003988705143318e-05 1.673944780366421999e-03 -3.896024625813053390e-03 2.904072289169953771e-03 -9.200276945151765083e-04 -1.792868701439197720e-03 1.567951833738215339e-03 3.180016409118878885e-03 1.244018763850304786e-03 -4.439849176083635030e-04 9.029953427974972803e-04 -3.530308822501584541e-04 -1.104875255479088360e-03 1.995743862153853332e-05 -3.063045277248393431e-03 -2.290103896179560193e-05 -4.003444820758394535e-05 -2.431000367209183201e-03 1.559146491466751813e-03 -9.620524875020597952e-04 -3.615922873823225730e-03 -1.519796520210788850e-03 -7.840698688771671320e-04 -5.012050775667992175e-03 -1.186794228090895483e-05 5.195404497814411123e-05 -3.242001222880155735e-03 2.913278674233841291e-05 4.695375767548923946e-05 -3.259999482419709618e-03 -9.870377722214885324e-06 9.954879906312315372e-06 -3.183000546027234343e-03 2.612900435818383746e-05 -5.104494978626471365e-05 -3.168998215246036834e-03 2.013068726333130961e-05 1.795448779294170114e-05 -3.208999437799638695e-03 -3.786816547786310566e-05 -2.504587794501189841e-05 -3.238001189938216097e-03 -9.868238298476653849e-06 3.795414265813070657e-05 -3.235000942956272121e-03 6.513041941874494155e-05 3.995455180046438151e-05 -3.201997917278642195e-03 -4.687055935566949977e-05 3.795497976332417851e-05 -3.178002449680750185e-03 -4.986428811231164428e-06 3.779953819155856386e-04 -3.260055624957970992e-04 -3.089954109009138312e-04 -1.720014026611103961e-04 -1.160101440598452658e-04 3.029957232269544208e-04 -1.049987769243276338e-04 1.030138269873037487e-04 2.610114846275567385e-04 1.995797499509250552e-06 -2.819893999512387535e-04 -1.539914954103539584e-04 1.479971999406430887e-04 -2.060083691285678374e-04 -9.499436621605607527e-05 2.779981887098259270e-04 -1.330078097754633815e-04 3.070017013513835964e-04 -1.150008641912225466e-04 -4.398586821500613476e-05 -3.499250349348541578e-05 -1.510026238276449386e-04 -1.869992842136706135e-04 -2.609898940379863207e-04 -1.470033542498201944e-04 -2.510085437775825255e-04 -1.378979426646578322e-03 7.379941183797768560e-04 -4.910666167866957910e-04 -1.150585448747298671e-02 -6.405695227994355478e-03 2.086062230996832412e-02 1.282135140267206402e-02 1.623322020618351430e-02 1.624029196002197903e-02 9.171867671061571109e-03 1.520204303457789799e-02 3.542157957993575731e-03 -2.856073939624532900e-03 9.027983112493645235e-06 1.815883571961188821e-03 -6.341964756481141031e-03 2.837034860352261739e-02 2.423733954340189650e-02 -2.320453375424737133e-04 3.722016981967393116e-03 1.184937782025341892e-03 1.882995019584844535e-03 -1.521000155693458559e-03 9.309824165443356028e-05 -1.648976002971769880e-03 1.884993450649795647e-03 -5.530938732535590346e-04 3.999963168728505975e-06 -4.700000312724647876e-05 8.292382874248997496e-10 1.800224430773102933e-05 -4.600080804583381707e-05 -5.599861479550289944e-05 -2.099837504186825618e-05 4.699946350416196722e-05 -3.900152145650207110e-05 5.199938836069753148e-05 -9.998280487688486696e-07 1.500213164807755554e-05 -1.799767887220883182e-05 5.199922013214826962e-05 -5.600147016696287942e-05 -3.399758414647176036e-05 -3.500082404232408596e-05 -6.000088823144071154e-05 1.200129678833966654e-05 -8.000463084599002448e-06 -3.199939789793171516e-05 -4.500160374690718946e-05 -1.999941182913759111e-05 3.899845108071476094e-05 3.499958179254205481e-05 -1.399988562550046544e-05 1.000162370918163903e-05 -1.103221247408352548e-02 1.333043442343712776e-02 3.003136179078661622e-02 -1.969888647339117574e-03 -4.154690190057114957e-03 2.174297870903909788e-02 1.355278538982966283e-02 1.778432810700336306e-02 -1.171747003706844065e-01 -2.651086145457714430e-03 4.487104430685168177e-02 2.978255875829879506e-03 1.686113530704158288e-03 1.071307613138480384e-03 2.179005349143521217e-02 9.491673182915749555e-04 4.806290481763708308e-03 2.054097052738245582e-02 -9.609147372500668723e-04 1.682319695191235786e-03 2.249593704007252920e-02 -3.603857599601707935e-03 2.103301986583102669e-03 2.110082344732139986e-02 4.553067115194640337e-03 4.356322423845157034e-03 2.299312366304406482e-02 1.141592743823939104e-04 1.522926672365738790e-04 2.064900250868255405e-02 -5.684559868081208044e-05 1.172944882900931520e-04 2.076799604152811118e-02 -4.384707252753219995e-05 3.294960167677976430e-06 2.080199818713260665e-02 1.701395520536887651e-04 -2.070055707420078280e-05 2.113000724135616001e-02 1.514112227281600875e-05 -4.370098864149711039e-05 2.109100125574904852e-02 -1.608384130208740737e-04 -6.670798226292270268e-05 2.058799441543539971e-02 4.212971576374072662e-05 5.430298834601957818e-05 2.137300096552906259e-02 6.415379970918689981e-05 -7.870545047693366838e-05 2.077900374758251054e-02 -9.286282523335074961e-05 -9.269954300461763063e-05 2.118699755251830102e-02 2.111488199161627201e-04 -4.170382171226895114e-05 2.090200920885603580e-02 -2.338546175039319134e-04 -6.370228234195119104e-05 2.098599139990999993e-02 4.139686107491509548e-06 -5.700469631737158740e-06 2.112700026903121045e-02 6.614655314002228399e-05 2.872971708123192016e-04 2.096399863979080819e-02 4.212691148581303798e-05 9.303952440640796140e-06 2.144100160346520956e-02 -1.078499079454298625e-04 2.302960594134046486e-04 2.087599236257703730e-02 1.213284345756873910e-05 4.430192014666940438e-05 2.129599988575274494e-02 -2.068495486027897672e-04 -1.427040898770990708e-04 2.085999361953342485e-02 1.671470438821842132e-04 -7.370317761201149241e-05 2.094500787078704476e-02 -2.758361190036970941e-03 -2.677220983764955469e-03 -1.573907438032447897e-02 -4.311236301886213918e-04 -3.953048954622148713e-04 -2.152901197117778817e-02 3.174606200586226404e-03 -1.829214046107824603e-03 -1.492184480701770621e-02 -1.245112243234002426e-03 1.455692282327985393e-03 -2.177307136076395491e-02 1.092946339837426667e-03 3.486697522133408423e-04 -2.323296045927267239e-02 1.559107216831294787e-04 4.676829197952759405e-04 -2.235600030267927835e-02 1.491844883396210115e-03 6.270468582597965384e-05 -2.074694015912370570e-02 -9.961510976811049824e-04 -7.872949964403614439e-04 -2.086202942139543312e-02 -4.673617291554107598e-04 3.808779178272748544e-03 -1.560107304595670548e-02 -1.450650530761290709e-04 -1.148325719659867026e-03 -2.298198964780777051e-02 1.542809739027338695e-03 -1.343283501328159778e-03 -1.991091814920200806e-02 -1.411138717392985660e-03 -7.342989673742946919e-04 -2.116504707168844271e-02 -1.039100291332874324e-03 -7.523126424858730867e-04 -2.210903166745454423e-02 4.489199541598842846e-04 -1.053320938984876349e-03 -2.261196680685368873e-02 5.988869224886649630e-04 2.419691391319910793e-03 -2.173400993891473273e-02 1.088904770381493754e-03 8.766843725991164613e-04 -2.220196810897359999e-02 -5.691339364736324596e-04 1.002699182233021983e-03 -2.124903741142885813e-02 -5.270263119370214525e-04 1.365661776642011337e-03 -2.388504084523082951e-02 4.185049778119288009e-05 2.703850462898956216e-06 -2.088599835356279993e-02 -7.158374669810710750e-06 -9.529304875661142986e-05 -2.066999895966448175e-02 -3.315028682259114928e-05 -1.129582143286608796e-05 -2.086700120915560910e-02 -2.154380872361328306e-06 -3.929442792338787332e-05 -2.076699954992480834e-02 -7.115500884136828988e-05 -9.294147054951651992e-06 -2.075100278501131046e-02 4.484468642720403780e-05 -3.429413863541791132e-05 -2.074399770695500161e-02 2.184376240413577215e-05 -1.829379453882595322e-05 -2.072099887040017643e-02 1.384459712553791423e-05 -1.482941143510445705e-04 -2.074399735303635028e-02 -4.514845439981915210e-05 -6.329646421025672629e-05 -2.091300096051936300e-02
1.523979874236311947e-02 -1.544236358095213146e-01 2.653080998877713897e-02 5.359548202297745615e-04 -7.009848807515526182e-04 1.096031763969549213e-03 -1.625404312140402499e-02 7.965378087020070358e-03 2.576922521416503617e-02 -2.605104958429195830e-03 5.947040205730578198e-03 2.691809604521022952e-03 2.932891209911425885e-03 4.129036706171067793e-03 2.751060891713643947e-03 -3.350789975680500761e-04 -4.149723461538092810e-04 1.931992240490730626e-03 -2.152074688798381527e-03 3.367028608301690477e-03 1.898864630433495663e-03 -1.416076935096300142e-03 -1.057972392871250845e-03 1.868957337611147672e-03 3.534903241050363094e-03 -1.405862474469933045e-02 2.666334328932025086e-02 -2.912491819235304963e-05 1.704352018134908494e-05 3.067998575221330803e-03 2.386441527930754136e-05 7.204720743718871984e-05 3.330999953404965071e-03 -2.125571340315327746e-06 -3.695628828717285072e-05 3.083000440269594022e-03 3.186913416369141678e-05 1.404554237700903987e-05 3.214001101590817974e-03 4.486531026185295072e-05 -8.495316343478724022e-05 3.306003034474942499e-03 -8.313485711685953674e-05 1.170470501907197098e-04 3.313994958290342706e-03 2.886899160576760582e-05 -6.395442691054846148e-05 3.216002085291956147e-03 -4.813119861381936462e-05 -4.695429573258144717e-05 3.220998708759792700e-03 1.187538873459794496e-05 -6.956625341436737749e-06 3.060000585049986541e-03 -2.961347771905708322e-04 -1.449528822492540171e-04 3.306989999329590195e-03 2.487630022878441660e-05 -3.895696160645414999e-05 3.037001568130863211e-03 2.618637994429626583e-04 -1.939528371111269198e-04 3.341013416243316606e-03 2.686974434675300989e-05 3.250454186604791575e-04 3.204996488710490365e-03 -4.112246868839298397e-05 -2.695733526377849012e-05 3.006998710449415753e-03 7.878074746209323532e-06 -8.957557943744463204e-06 2.994000450583462602e-03 2.858714361352154951e-04 -2.179555213261434783e-04 3.153014733984831237e-03 -3.131302704090351214e-04 -5.954400154231383604e-06 3.198987336466395902e-03 1.786756420963937002e-05 2.970461771334215661e-04 3.257996519150938800e-03 -7.418671575432182752e-04 5.849544889114471858e-04 -3.251038505841032621e-03 6.191154450598630385e-04 8.859595622087269124e-04 -2.817987352671982859e-03 1.350047304577084363e-04 -1.990018070198631820e-04 -1.199916811986174759e-04 3.741005335340956330e-04 -8.910355387500122496e-04 -2.485972135703451436e-03 -2.328808567975390652e-04 1.999587548998906980e-04 -2.922012320794717052e-03 -1.308793396906923821e-04 -7.220421046515139050e-04 -2.976995095318858784e-03 -4.688582959572981543e-05 1.939603389542448729e-04 -2.800004661763239727e-03 1.036126409315200718e-03 3.279552659728810350e-04 -3.097962460624764571e-03 -9.828755226539275403e-04 -6.104258600684994089e-05 -3.058039160910364269e-03 -2.853747687774186789e-03 8.359146158114059847e-04 -6.180128064174427067e-03 -1.883959039315253559e-05 1.675944622061482795e-03 -3.907024531995800971e-03 2.894072776261181340e-03 -9.220278568185576867e-04 -1.804869080281026579e-03 1.553952447696720996e-03 3.184016207413491780e-03 1.229018137061279334e-03 -4.259843506658264741e-04 8.989951302148345555e-04 -3.670300925507700681e-04 -1.106874925792841790e-03 2.495732676466387901e-05 -3.071045429571476158e-03 -3.290063252867497258e-05 -4.103458215547520059e-05 -2.441000760230634982e-03 1.561147233843095204e-03 -9.500527442695785342e-04 -3.633922962497952800e-03 -1.511796033134490741e-03 -7.860700452744793024e-04 -5.024050421534500405e-03 -1.186818895666948330e-05 4.895413004521872666e-05 -3.236001180352443118e-03 2.513262621301642804e-05 4.995381751835288706e-05 -3.255999687840123273e-03 -5.870458383639019731e-06 1.095490512981760554e-05 -3.181000397323452151e-03 2.112892605494476203e-05 -4.704491751609645714e-05 -3.166998475563205431e-03 1.413044059254717579e-05 1.495457755799325174e-05 -3.202999639597032665e-03 -2.786828608153016075e-05 -2.304584324178898675e-05 -3.235000811088020560e-03 -1.186852882771234245e-05 3.095424346939624376e-05 -3.228000925160137268e-03 6.013008973830440872e-05 3.495466913831211275e-05 -3.193998050001516792e-03 -4.087096343475206172e-05 4.195511684289762868e-05 -3.168002262075993343e-03 -1.098631526304308788e-05 3.669953440812853880e-04 -3.290056508627168565e-04 -2.879932942182241167e-04 -1.730021563492877457e-04 -1.680092746958692111e-04 2.939968618507923749e-04 -1.069991668554307816e-04 7.501348888119939321e-05 2.540124235634032843e-04 4.995476890886554330e-06 -3.049897275091062107e-04 -1.559905956323474831e-04 1.529968895946333602e-04 -2.280085214386362504e-04 -9.199278907581263476e-05 2.639976334282296546e-04 -1.720074890879671559e-04 3.090025134158046151e-04 -1.180011493128196604e-04 -6.398574422142152749e-05 -2.499086604887060795e-05 -1.400031987705299371e-04 -2.269990329233736624e-04 -2.789900099169892781e-04 -1.390032976233097700e-04 -2.480093901777991852e-04 -1.421978315419612695e-03 7.009937550740714257e-04 -5.190678431800168106e-04 -1.142584943423730938e-02 -6.400697048681176608e-03 2.073662549686286147e-02 1.279335431965790935e-02 1.611021917896295064e-02 1.616629256377184048e-02 9.096869923257189933e-03 1.511404228517714693e-02 3.485156151625914186e-03 -2.838072766545854646e-03 5.102757203605858818e-05 1.787883709496472301e-03 -6.287959421362276750e-03 2.826734667560442532e-02 2.410434320276113457e-02 -2.620439765162359269e-04 3.692016523415259707e-03 1.150936985764318670e-03 1.904995734544509241e-03 -1.492000413944818797e-03 7.609872637382076753e-05 -1.641975989656826269e-03 1.901993445167108731e-03 -5.530938292295802363e-04 -1.400325532985016643e-05 -4.899886898728035486e-05 7.900012454505598615e-05 4.499820978788215324e-05 -4.999942558458582225e-05 4.300254128650087725e-05 -3.100211978370833501e-05 4.900077569109531850e-05 5.299804289393677804e-05 2.699585428765990816e-05 1.000142499322272393e-05 1.020009575905264448e-04 -1.100177992925347608e-05 6.700064660699468864e-05 4.499860211865349188e-05 -1.700124590187863778e-05 -3.099956135207929418e-05 2.999974722831055013e-05 1.599834686235104491e-05 -3.099944541299881449e-05 4.000109100710141680e-05 -4.400517934592271198e-05 -9.998164967149896794e-06 1.269983499421265384e-04 2.899636485115756463e-05 -1.399876088168983506e-05 8.900137931063666237e-05 -1.098920368003485776e-02 1.322443129901958864e-02 2.981336504482879485e-02 -1.972880496900038683e-03 -4.146693023268004617e-03 2.154297847364035692e-02 1.353076773027413193e-02 1.769733424904564381e-02 -1.167427000334792936e-01 -2.657086093103202575e-03 4.462604422650758712e-02 2.972259105062399851e-03 1.684119888641873609e-03 1.078305402967690355e-03 2.163405331089418224e-02 9.541753074078050808e-04 4.816287698999827463e-03 2.034497058939127578e-02 -9.959062257819020336e-04 1.683316759436769569e-03 2.228693560085926589e-02 -3.567852230749273251e-03 2.095300086927059761e-03 2.096882502681685426e-02 4.552075382309564260e-03 4.357319546535593814e-03 2.279012360833415976e-02 8.616416871717202551e-05 1.102909736514613655e-04 2.052800196407726999e-02 -7.084060567734881664e-05 9.729275538522587645e-05 2.064499575510580706e-02 -6.843418652647799672e-06 -1.070634480335112087e-05 2.071199989237645228e-02 1.461438410825448113e-04 -3.702026952519972163e-06 2.102500602313136027e-02 1.414628365885284041e-05 -4.702774264648371454e-06 2.096500066221255315e-02 -1.488342516444294747e-04 -4.709423622458573999e-06 2.048699402515816864e-02 -6.864928634074339441e-06 2.930115524636356475e-05 2.124099932477415201e-02 7.715732752358944670e-05 -9.770669412216488646e-05 2.069200454641195383e-02 -6.485716505981236821e-05 -9.270153564206549805e-05 2.104799869283134617e-02 1.731560698243489059e-04 -3.970631560619129616e-05 2.072400763327363407e-02 -1.998484115094065758e-04 -4.270446399083275115e-05 2.083399248682720264e-02 2.014806440080811929e-05 -1.870340278420992640e-05 2.092100110506724814e-02 7.415475601943825065e-05 2.582943006366101202e-04 2.076199937690053482e-02 4.513336183108986667e-05 3.030170999786789841e-05 2.128300142804160494e-02 -1.178432446072702602e-04 2.112937420868420471e-04 2.071199222489848724e-02 1.395960748020467414e-07 3.529957602950027813e-05 2.112999952485671365e-02 -1.358426566532599297e-04 -1.297065415185530565e-04 2.069099632656003218e-02 1.271536524450444096e-04 -5.870544309652627515e-05 2.078300602943714340e-02 -2.720368558973383123e-03 -2.675218447338049890e-03 -1.555807286145592314e-02 -4.611302770635431402e-04 -4.073025609904762519e-04 -2.136601302282168519e-02 3.171600108917756004e-03 -1.808211917091648606e-03 -1.477184522705273298e-02 -1.238119353715340419e-03 1.475694757959184833e-03 -2.159807135943594275e-02 1.082939740718918487e-03 3.456720568464536985e-04 -2.307096082409848883e-02 1.589028923343116029e-04 5.056856537569617274e-04 -2.216300071945114664e-02 1.484835712593705502e-03 5.170788131201839758e-05 -2.052194028842342297e-02 -1.043158436796207036e-03 -7.992924076351668903e-04 -2.068203116530959937e-02 -4.233693627947501792e-04 3.784781795071070262e-03 -1.541407091414676717e-02 -1.290714399926933735e-04 -1.140323506274739957e-03 -2.282498910984221210e-02 1.483804938718592901e-03 -1.337281782152138472e-03 -1.979292063690850020e-02 -1.363143372120752652e-03 -6.982973745152728107e-04 -2.105004562759397665e-02 -1.046106494974091868e-03 -7.183104678056370001e-04 -2.195603243468668628e-02 4.329129173035676094e-04 -1.043318473699348303e-03 -2.243896760032576196e-02 6.158798284540762313e-04 2.460693859119031466e-03 -2.155900982811124328e-02 1.062897006018383638e-03 8.416870867416639075e-04 -2.201196867167063559e-02 -5.961399326261568364e-04 9.377012733385939325e-04 -2.110303758947293384e-02 -4.780322470588296456e-04 1.326663794059459089e-03 -2.374003829711113928e-02 1.184409366416427666e-05 -1.129390013193297983e-05 -2.072899937684559435e-02 -1.016438411302748019e-05 -7.329094809612704976e-05 -2.052199939387541056e-02 8.430670329790347453e-07 -2.229353707298225995e-05 -2.070399966884279783e-02 -3.159777178897583260e-06 -6.629255566868187937e-05 -2.063499920796875442e-02 -4.716018119152882429e-05 -1.029236526674745397e-05 -2.062400179365118241e-02 3.683830344841278876e-05 -2.129190645888718542e-05 -2.058699821717868694e-02 -1.516165108617747442e-05 -1.529187992148731031e-05 -2.058800041972859429e-02 4.083898232866346490e-05 -1.422921789567855330e-04 -2.060599633876823711e-02 -2.715536206965403355e-05 -4.429406808089120511e-05 -2.074300049707957991e-02