-1.412880841019999934e+03
-1.412880842540000003e+03
-1.412880845420000014e+03
-1.412880849769999941e+03
-1.412880855699999984e+03
