-5.021533411894418819e-02 2.333285836547197706e-02 5.776762443462276492e-02 -1.740187310852993330e-02 -4.273031714459698920e-03 -3.198648039694980492e-03 -2.261078618896909115e-03 4.300292610561688819e-04 1.938901831914843039e-03 -9.220757850452754876e-04 7.740273193885290190e-04 1.875951480042420362e-03 -1.560747797720890453e-04 1.642026606103606529e-03 1.867970365923123013e-03 -2.110820787251335858e-04 -1.176971578322997094e-03 1.993008093275325503e-03 -9.910100281564891006e-03 -1.825661413182603360e-02 2.666885531572244644e-02 -1.575087145593059065e-03 8.260318004624783847e-04 2.155924151822653009e-03 -4.478066211138055988e-03 -2.497974120930303125e-03 1.577853066614934427e-03 -1.212323768198356537e-05 3.104292557939318449e-05 3.026999069025225041e-03 -6.112558774642395346e-05 -5.795624208828261276e-05 3.082998335472411124e-03 -3.513426985127518157e-05 8.704679994299811970e-05 3.298997338238044037e-03 -8.413436383945300948e-05 -3.295316167809285765e-05 3.298997044247955254e-03 -1.213054784384843919e-05 5.604547758003827681e-05 3.206998714413810628e-03 7.186520218126187583e-05 -6.695314204411196744e-05 3.309003878735391341e-03 4.187546234064240942e-05 3.504333698664913947e-05 3.059001211210384246e-03 -3.213294097892057961e-05 1.604631555612491968e-05 3.264998467053410128e-03 -1.391282799586124178e-04 -6.395524527948362036e-05 3.148995244251251088e-03 3.108601196638061418e-04 -1.609515853018873041e-04 3.432014943614233784e-03 -2.881286393203931376e-04 -1.589550293589117439e-04 3.155990523725457110e-03 -5.012184141328499047e-05 -5.957540885860580501e-06 2.991998046242666433e-03 1.188030892905925767e-05 3.604167331878478366e-05 2.939999975517709144e-03 8.707428249618372524e-07 3.520450987485686158e-04 3.180995047191057749e-03 -1.212266604805774951e-05 -1.895728708249669260e-05 3.011999777927341915e-03 8.866373151269623344e-06 3.360466095103162429e-04 3.287995599702615845e-03 2.858709850966627427e-04 -1.699553511974380557e-04 3.165014053441029662e-03 -3.301309118418454505e-04 -2.009542166900941593e-04 3.210989408864647898e-03 1.088992417184806230e-03 -9.998215611868137016e-06 1.860444866115953748e-04 -1.274855561523443063e-03 1.247951049821221549e-03 -3.523069609659005771e-03 -5.590120556078365121e-05 3.189657335508469028e-04 -2.420006800824580414e-03 -5.638815675330890098e-04 2.799592834416652471e-04 -2.903026933635176506e-03 1.761226547013467847e-04 -2.126043422402241860e-03 -3.052962688367008570e-03 -4.258807298734291731e-04 -2.041193206054821837e-06 -2.929017316004255220e-03 -7.828591226076636123e-04 -2.820485129465146574e-04 -3.465027883076068297e-03 2.191094104468841006e-04 -8.038267211492629638e-06 -2.686990966213667013e-03 1.208102613438987501e-03 5.689634819947155366e-04 -2.508958874026901570e-03 1.091972669925633061e-03 -6.991341730407876702e-06 6.710445657900031540e-04 -1.784384638376804242e-05 2.979457272854432216e-04 -3.829004954389400844e-03 -6.984955210289361005e-05 3.253948560728931166e-03 -3.632048981525598779e-03 -2.368894414307072017e-03 1.489651344128817387e-04 -2.590098577775392080e-03 7.251977020704988668e-04 -1.919069925253672534e-03 -4.891943265707251499e-03 -2.157959119971797346e-03 -7.012544800134491972e-06 -1.004087775419048494e-03 2.231077840947457325e-04 -1.356038071718448403e-03 -2.672971691718122999e-03 -1.270896766914962617e-03 5.965054476263557159e-06 -2.535051838911818022e-03 3.263194084345931792e-03 -4.530702538436485994e-04 -4.774860700897123021e-03 1.412843508493128638e-05 1.955272271276597382e-06 -3.153999455331658007e-03 1.413021977471172006e-05 4.495466262174109019e-05 -3.197000064935514620e-03 7.513166608502153988e-05 1.995410446086278667e-05 -3.232997226486044370e-03 1.912893781020587271e-05 -3.204491595161631850e-05 -3.166998769671359928e-03 4.513231134977452888e-05 -4.004611306572502508e-05 -3.249997597429966304e-03 4.312949693701292864e-05 5.954880941305386449e-06 -3.179998331113860141e-03 -1.287170429381166016e-05 -2.004466405222325349e-05 -3.151000242886630668e-03 1.671324185481928067e-04 -7.046236950173552786e-06 -3.251993097350465260e-03 7.213317432573713626e-05 2.195358223122119057e-05 -3.269997376969729051e-03 4.079930943324382858e-04 -2.999792341199089205e-05 1.690170392830574501e-04 1.310073501903305244e-04 3.899974446295892232e-04 -1.730001947354354089e-04 -1.979883718226322969e-04 -2.830039706766821405e-04 -2.910040501509467440e-04 3.220028276429720581e-04 3.349988546403580834e-04 -6.299163737813725573e-05 2.240089764461884053e-04 7.499671966411566566e-05 -2.189919416580278705e-04 -1.239919026686173967e-04 9.599730405615888157e-05 -1.970064102677004318e-04 -4.119844499323051224e-04 -3.190051783580258576e-04 -3.880122539234298336e-04 2.200021149255107977e-04 -5.500092367676392253e-05 -5.299026158649492986e-05 7.500965459481984967e-05 -2.030034755529295219e-04 -2.409940676261491911e-04 3.998693327753155558e-03 1.039103925226416954e-03 7.551148104967975866e-03 2.174995026210799036e-03 -2.650000441878665723e-04 1.170923248497344565e-04 -2.197545819410552659e-02 -1.595247943856544295e-02 3.550233134487462000e-02 5.740138231188757906e-03 1.492929961702459465e-02 2.145002209863557455e-02 2.432956764394277483e-03 2.042013704517190321e-03 1.101070121814278933e-03 -3.344014082169673597e-03 1.149007835652006860e-03 3.678475388815499823e-04 1.219012305810732210e-03 -5.600053920658082341e-04 -3.129424214439829291e-04 5.989811563654016957e-04 8.970063362366490888e-04 4.800116738897815651e-04 -1.227028644545293673e-03 -3.297989965142207776e-03 6.399967931846518463e-04 2.200688888085782717e-05 6.099760089831405006e-05 -1.679999688286744060e-04 -1.629941172580824671e-04 2.399808602342163823e-05 -1.440069776311930577e-04 1.600114957313176120e-05 1.199959049258159747e-05 -2.799951857351498470e-05 7.300356691833155304e-05 -2.100130480259430145e-05 -8.799672956303101622e-05 -1.998909963524055336e-06 -6.400039540582593066e-05 -2.799917403881157826e-05 -4.399573443677921652e-05 3.899855995718143440e-05 -1.040023445535461063e-04 -4.699837110243641855e-05 5.199948386155795897e-05 -3.900265108744843814e-05 -7.299598427274371453e-05 -7.200136061355852249e-05 -1.000019517302020469e-04 7.800037031575300921e-05 -4.700020284691565337e-05 -9.996157409433961325e-06 1.322502096398477933e-01 -7.209176245264725929e-04 -1.279466045582881850e-01 -9.216952823665880770e-03 -4.214662185650226191e-03 2.331768445423274688e-02 -1.336378797278816796e-02 -4.046716287764348489e-03 1.927251320675912871e-02 1.117332001596260628e-03 9.182234205709563155e-03 1.658091533027371972e-02 -4.157053678913465340e-03 -1.805630377275929590e-03 2.584085634516182853e-02 -9.899238203648671585e-04 -3.567758814756255765e-05 2.268596021638886323e-02 2.955243509886841275e-03 6.163262752904173115e-03 1.869603297589988306e-02 -1.049921861771933645e-03 2.132179247007847224e-05 2.263895696504896610e-02 -6.104979897535863301e-03 -5.347655505897626511e-03 2.396082724032969763e-02 1.871443853323371469e-04 6.729777080393566958e-05 2.101300668607620700e-02 1.041465420635323005e-04 1.172970985422171366e-04 2.096100259740572846e-02 -1.758363032605620498e-04 1.312913489278815296e-04 2.053999099747009019e-02 -1.008397161125371090e-04 -1.470756138068727205e-05 2.062099612141209126e-02 1.251488458454162256e-04 -8.703754377926316491e-06 2.090200523899664667e-02 5.113597180279767513e-05 -1.206992445971758377e-04 2.121600381327127735e-02 2.815185610875358595e-05 -6.470474175630599079e-05 2.082700208309855999e-02 2.213304078488689795e-05 3.630184142853751971e-05 2.129100040638801095e-02 -2.884352911826267425e-05 -1.517063275632212719e-04 2.071200099558237473e-02 1.811398801869872348e-04 3.429933506272933000e-05 2.112300690951503940e-02 1.721473727790512971e-04 -6.970329494975843071e-05 2.093700801768768466e-02 -2.508478131417201415e-04 4.529539162176007827e-05 2.082098916243269732e-02 -1.038537889657243458e-04 2.142974031735925050e-04 2.097099275221634557e-02 3.115210682479993754e-05 2.032952416898926927e-04 2.082599840562143756e-02 8.612719571162602041e-05 8.303818744343203598e-06 2.143400340936692933e-02 1.521446507179837816e-04 -1.657023577234587855e-04 2.100200856427553164e-02 -2.286914483236406929e-05 -5.069738608250597118e-05 2.134299980736679286e-02 -1.008451720214504163e-04 -2.217057182464220741e-04 2.075099905608827899e-02 1.087523882760061192e-04 7.657381649011978054e-04 -1.846200644515265041e-02 -5.226472646205133042e-03 -3.879180572672651355e-03 -1.302515784023627887e-02 -1.001088367719208620e-03 -1.903166704346754396e-04 -2.239103808770312454e-02 1.839174524520357655e-04 6.906806152238491271e-04 -2.251700232398703289e-02 -6.361498613008758057e-04 1.206704834902367143e-03 -2.085404303235682127e-02 -6.009409855938270545e-05 -5.393155073742962862e-04 -2.225699482146733729e-02 1.464645585347883758e-03 3.115774929279532205e-03 -1.579398454790285206e-02 1.859892398910366687e-03 -1.399312544634678281e-03 -2.194190444484943672e-02 -2.371923409697633848e-04 2.617190548224152631e-04 -1.982901338770358748e-02 -6.050599708841547780e-04 -4.833269474617557667e-04 -2.309401780750787794e-02 -6.930715194585600073e-04 3.686773746946235618e-04 -2.279403347067612828e-02 2.171881545267869123e-03 -8.033088475624517279e-04 -2.166390019014934054e-02 8.529076068909001353e-04 -8.563169027520068071e-04 -2.230495314893462741e-02 1.708638654294912745e-04 7.446992975538486732e-04 -2.120000362018160597e-02 -4.851392966064367769e-04 1.437701101308842822e-03 -2.110904015833461531e-02 -1.380062547866709290e-03 1.766747368061770884e-04 -2.301805872356203070e-02 8.818879295730345765e-04 -2.963099216844403833e-04 -2.181095990803670961e-02 -5.101620564417841744e-04 -2.732914214234039821e-04 -2.058301691869156985e-02 2.384794964679939991e-05 7.670477192827297350e-05 -2.082200013575211464e-02 2.847107013789719892e-06 -1.129494224182445473e-05 -2.080299974326446297e-02 -1.481581881373192952e-04 -1.329298089580606649e-05 -2.067300586387830347e-02 -4.315841528584836223e-05 6.070703612670504817e-05 -2.066600263734993947e-02 2.084202862248008594e-05 -4.829319828540019763e-05 -2.067899848582716374e-02 -1.291606337541990662e-04 -1.629214510470880265e-05 -2.061300504770461825e-02 7.484636692679131362e-05 -2.029474341632384082e-05 -2.078499668378004650e-02 -1.701580510186936164e-04 1.097070221399141951e-04 -2.067400850360100531e-02 -1.141541552851734782e-04 -1.152944394647242794e-04 -2.077400303314360167e-02
-4.999232454978171092e-02 2.322885483073681631e-02 5.753063499008027881e-02 -1.733787378124795886e-02 -4.248031523551451527e-03 -3.181645788020398807e-03 -2.249078094237382495e-03 4.240290673494801887e-04 1.925902405643722124e-03 -9.100751758097750397e-04 7.720270973258463836e-04 1.860951997062104549e-03 -1.550741392095070670e-04 1.628026378477295810e-03 1.851970605147535906e-03 -2.210814624192250152e-04 -1.169971783160671632e-03 1.978007586836414474e-03 -9.874095026205707143e-03 -1.814961596060469043e-02 2.654185526477045518e-02 -1.569086541054023117e-03 8.180315830983776217e-04 2.140924509583811992e-03 -4.457065549435577402e-03 -2.484974364219258956e-03 1.561853737456756451e-03 -1.412307166267077074e-05 3.504287043380078934e-05 3.022998930876187162e-03 -5.812538257756512411e-05 -5.595631532644951934e-05 3.077998429284085468e-03 -3.613398088669826885e-05 9.204670148092268512e-05 3.291997226634882801e-03 -8.513395584665002600e-05 -3.195330267315114729e-05 3.288996989358636876e-03 -1.413026122916258450e-05 5.804537990126142717e-05 3.199998604623088480e-03 7.486552637834678950e-05 -6.895325781526170873e-05 3.301004029260908978e-03 4.387570274615624572e-05 3.004325035438870607e-05 3.053001363546481179e-03 -3.313261599494457429e-05 1.504620291685898122e-05 3.256998440517759087e-03 -1.391280372007193118e-04 -6.595533034605416942e-05 3.142995272612355857e-03 2.998606443424086851e-04 -1.669517609996644153e-04 3.419014580763537255e-03 -2.801281937485086498e-04 -1.619551915783275600e-04 3.144990892035781898e-03 -4.512123530627274804e-05 -1.195775746716693926e-05 2.976998334927447119e-03 8.880550905867063837e-06 3.304159060130351037e-05 2.933999895894023966e-03 6.871113225412974475e-06 3.570449664499293543e-04 3.171995220635713628e-03 -1.212233871419068448e-05 -1.695740050506122109e-05 3.003999749579252219e-03 5.866818732277488914e-06 3.330464559038581588e-04 3.276995520083578195e-03 2.878714800136719133e-04 -1.619555228977812304e-04 3.153014021471779640e-03 -3.291302548242201710e-04 -1.939544443185217877e-04 3.194989350356028119e-03 1.082992865902596439e-03 -8.998366869741006543e-06 1.750442281189507987e-04 -1.266855934286225749e-03 1.239951171158217144e-03 -3.514069170478455444e-03 -6.090133006987714297e-05 3.159657799995161222e-04 -2.417006961898334177e-03 -5.578818893869179341e-04 2.849593921655472085e-04 -2.895026760206323869e-03 1.681222976233037020e-04 -2.114043288539324290e-03 -3.043963184275345207e-03 -4.218810587777607974e-04 -6.041082915273294784e-06 -2.921017096417233283e-03 -7.748596120479523883e-04 -2.830483490768387149e-04 -3.453027543142650653e-03 2.181091238346864237e-04 -1.003816718372731072e-05 -2.679990978585498375e-03 1.196102446647712841e-03 5.639635481023549599e-04 -2.504959291792016075e-03 1.087972952624110222e-03 -9.991437842688362936e-06 6.640444454463961593e-04 -2.084437967006742468e-05 2.929459139462754530e-04 -3.816005005675221929e-03 -6.785017937219581686e-05 3.232948771831986590e-03 -3.617048602364808085e-03 -2.356894900616384857e-03 1.519652951501697933e-04 -2.578098131669624444e-03 7.181967756834397275e-04 -1.906069593684716658e-03 -4.868943735085515603e-03 -2.142959195940903963e-03 -1.252819019178471099e-08 -1.002087263852485463e-03 2.211072993641918110e-04 -1.351037900019415577e-03 -2.660971844059798006e-03 -1.261897299427641424e-03 1.965231741041121853e-06 -2.522051415725189063e-03 3.244193149349517379e-03 -4.510699128776298936e-04 -4.751861502970202399e-03 1.712774126101591744e-05 -4.448905498907248406e-08 -3.136999304829381045e-03 1.412953143829896271e-05 4.995490364375820613e-05 -3.180000135840134814e-03 7.213105527490957256e-05 1.995431947678170514e-05 -3.217997348662541331e-03 1.612836850450740124e-05 -3.104471511359357478e-05 -3.152998906024690774e-03 4.813157602144565393e-05 -4.304586021409452095e-05 -3.231997432750855458e-03 4.212876396272211769e-05 5.955136924618080431e-06 -3.161998371851443800e-03 -1.787235660667833078e-05 -2.104443329241584629e-05 -3.135000432327996519e-03 1.651317677999849154e-04 -6.046008539556240568e-06 -3.235993192984804728e-03 7.413239984454462789e-05 2.095385004344159171e-05 -3.250997281367925748e-03 4.089959768919413058e-04 -4.099893081734891495e-05 9.801723602530820517e-05 1.390114065962267135e-04 3.699960205880999499e-04 -2.729995853203973002e-04 -2.049847554978003752e-04 -2.930052270184883086e-04 -3.800041933365356671e-04 3.210060500751767349e-04 3.419977353768149150e-04 -1.419917772698943924e-04 2.150111808640279968e-04 8.199596110942578659e-05 -2.729924073398339057e-04 -1.239882409273103077e-04 9.199602805497943277e-05 -2.870063534729826778e-04 -4.009816746557198688e-04 -3.110061510618747707e-04 -4.560119193529626092e-04 2.210046889569104701e-04 -4.400181766197689141e-05 -1.159903767624772609e-04 5.901145337721214412e-05 -1.940040868488942952e-04 -2.849948467187359263e-04 3.895697003659233121e-03 1.001102715699473669e-03 7.460144449559915486e-03 2.181997813219322801e-03 -2.940010279337961787e-04 4.809302111497511310e-05 -2.179444902577307511e-02 -1.589248275611995775e-02 3.527833786489109613e-02 5.690144777832625844e-03 1.481329734520545408e-02 2.128702170736510371e-02 2.394958824758573919e-03 2.073013025378151256e-03 1.051068134957749024e-03 -3.309012711769483694e-03 1.183007340376466621e-03 3.348484820980579296e-04 1.181013966777381312e-03 -5.710059436004553393e-04 -3.539438128428136292e-04 6.349823779607437300e-04 8.970058827149265251e-04 4.500131398683096724e-04 -1.224028115151880704e-03 -3.245990137629983178e-03 6.279961781146599798e-04 -1.399890206787374742e-05 4.999964233422616656e-05 -2.600127895591943349e-05 -1.350015723293217023e-04 2.000065863648398709e-05 3.899421909357557057e-05 2.499539930791719664e-05 1.001582515871334181e-06 1.130010037384698314e-04 5.699793805279854771e-05 -3.299933573768595066e-05 5.000278890822814585e-05 -4.005366553236861668e-06 -4.099813957268952938e-05 1.310004182831203115e-04 -2.700228972254736158e-05 4.000082927119945586e-05 5.699833337349405831e-05 -5.700416363987936884e-05 3.900150493977165068e-05 1.029971258829624910e-04 -4.600155364733724049e-05 -5.999943939769970244e-05 3.699897747226152541e-05 6.299541884075586312e-05 -2.599846141305604211e-05 1.120029339313554717e-04 1.314301748852534646e-01 -7.989049029801118191e-04 -1.270946368443125474e-01 -9.175945599656164589e-03 -4.193664727224965735e-03 2.314068582621914977e-02 -1.323478385930674552e-02 -4.045717820728285570e-03 1.917151844566505198e-02 1.117335000025543703e-03 9.111233142382067773e-03 1.650591633696464611e-02 -4.124047823734200251e-03 -1.764632430543672898e-03 2.569785710779454516e-02 -9.899158053865650137e-04 7.319633000211358055e-06 2.248995960692723450e-02 2.896248249199705714e-03 6.131261140302114374e-03 1.857903102716685836e-02 -1.026915685544077441e-03 4.319619437985472223e-06 2.248695814279182137e-02 -6.053973957011980767e-03 -5.301657601615395940e-03 2.381582866505077903e-02 1.631495216381172696e-04 2.229598902036879226e-05 2.088600634689319335e-02 6.814988120227163471e-05 1.172959641508589714e-04 2.087900113153131829e-02 -1.118335053292851826e-04 1.162903205497596549e-04 2.047099381633515555e-02 -1.148367873347386344e-04 -1.870857121960399442e-05 2.054899560809816256e-02 1.341524144089576830e-04 2.429500510358490324e-05 2.081500513769898864e-02 4.513933758313489044e-05 -3.470038830929310950e-05 2.113500234973381131e-02 -5.384440925955686876e-05 -7.970598190628246169e-05 2.073499895674074667e-02 5.213553959416052655e-05 3.300938918667102353e-06 2.122900209593737639e-02 1.116119133170868956e-05 -1.557080035069263919e-04 2.059600268123530642e-02 1.581489029939292144e-04 1.229620560328813541e-05 2.090100628505263056e-02 1.881550635195286569e-04 -7.670598708031489655e-05 2.074800876864133989e-02 -2.368394434660530778e-04 2.129246003638854263e-05 2.061499007298243577e-02 -1.058445664898671258e-04 1.872941863827592556e-04 2.074399305378527361e-02 4.315980227003580290e-05 2.022925526907160226e-04 2.063699890862510586e-02 7.813475882447452306e-05 -5.698812060213748436e-06 2.124800328226171195e-02 1.431523634192537707e-04 -1.447050302819340964e-04 2.081300790023053390e-02 1.713891240074909096e-05 -5.700210432575284249e-06 2.114600079838461349e-02 -1.188371225759669148e-04 -1.867084971817062073e-04 2.055399782707437173e-02 1.207436317183039075e-04 7.637412037314486677e-04 -1.824700592834677115e-02 -5.194478924268215551e-03 -3.836178400174581823e-03 -1.287015714695695888e-02 -1.003096013832590000e-03 -1.783140034443645588e-04 -2.220303833945275196e-02 1.859094445492174771e-04 7.086834066817287569e-04 -2.232000249792820412e-02 -6.211572208153301076e-04 1.220707389336974464e-03 -2.067304262020100078e-02 -8.110279321239055670e-05 -5.143124568856896053e-04 -2.204299603124823190e-02 1.450636999505859528e-03 3.071777917582940547e-03 -1.558398449436839209e-02 1.841884811528304421e-03 -1.416309893469096162e-03 -2.175590493697568406e-02 -2.302001045766698996e-04 2.277217431259887339e-04 -1.963901262079029500e-02 -5.470675160412644469e-04 -4.983243699818784350e-04 -2.290901523320403380e-02 -7.680785641016771000e-04 3.686798861779330759e-04 -2.262103652490078318e-02 2.180874744905103926e-03 -7.513064727450382988e-04 -2.149590056106155667e-02 8.179001886998670239e-04 -8.133142808149249016e-04 -2.212195518397836250e-02 1.808568731653363039e-04 7.077017141306242431e-04 -2.102900268855480842e-02 -4.671478424877726385e-04 1.496704078723785697e-03 -2.089804026204348728e-02 -1.396072052264204621e-03 1.556780527625522713e-04 -2.278505907757921028e-02 8.168808050221093835e-04 -3.463074038482565021e-04 -2.163696184616560950e-02 -4.131683236387115321e-04 -3.202893281666024223e-04 -2.043001230255635930e-02 -1.157369899592153425e-06 4.370663461990085809e-05 -2.069200068602804199e-02 3.842579947557671730e-06 -2.029336928862799101e-05 -2.069199957504692586e-02 -1.211632555660647218e-04 -3.629124398775857425e-05 -2.054900443844203534e-02 -4.716266200349425924e-05 4.570851375091962416e-05 -2.056200258766356995e-02 3.683738721702186741e-05 -4.729159454476809137e-05 -2.056499784857728635e-02 -1.261651020790596918e-04 -2.290587897618676855e-06 -2.050300512413301066e-02 5.184197771445465215e-05 -9.293194206621954026e-06 -2.067699777641541711e-02 -1.611632515400773433e-04 1.247088298492431276e-04 -2.054600834989878458e-02 -9.515987421574253645e-05 -8.629245527542856961e-05 -2.063300267073364322e-02