9.321232560047757687e+00 0.000000000000000000e+00 4.959410383857847579e-17 0.000000000000000000e+00 1.612598114000000038e+01 0.000000000000000000e+00 1.046780263501878583e+00 0.000000000000000000e+00 2.163288069176189765e+01
9.321232560047757687e+00 0.000000000000000000e+00 4.959410383857847579e-17 0.000000000000000000e+00 1.612598114000000038e+01 0.000000000000000000e+00 1.046780263501878583e+00 0.000000000000000000e+00 2.163288069176189765e+01
9.321232560047757687e+00 0.000000000000000000e+00 4.959410383857847579e-17 0.000000000000000000e+00 1.612598114000000038e+01 0.000000000000000000e+00 1.046780263501878583e+00 0.000000000000000000e+00 2.163288069176189765e+01
9.321232560047757687e+00 0.000000000000000000e+00 4.959410383857847579e-17 0.000000000000000000e+00 1.612598114000000038e+01 0.000000000000000000e+00 1.046780263501878583e+00 0.000000000000000000e+00 2.163288069176189765e+01
9.321232560047757687e+00 0.000000000000000000e+00 4.959410383857847579e-17 0.000000000000000000e+00 1.612598114000000038e+01 0.000000000000000000e+00 1.046780263501878583e+00 0.000000000000000000e+00 2.163288069176189765e+01
