9.508005584774894103e+00 1.612588999999999828e+01 4.870162190326866813e+00 1.740307599574147046e+00 2.687570000000000014e+00 4.870159322585295492e+00 1.610308756231277894e-01 3.583559999999999857e+00 2.312609750497486960e+00 1.714566670665301995e+00 8.958899999999999642e-01 2.312614512698495606e+00 3.293842911297921727e+00 1.612588999999999828e+01 4.870154096472966820e+00 4.847388694653433916e+00 2.687570000000000014e+00 4.870158375355576830e+00 3.268101982389076898e+00 3.583559999999999857e+00 2.312609286586166935e+00 4.821647765744589087e+00 8.958899999999999642e-01 2.312613565468776500e+00 6.400924489695607456e+00 1.612588999999999828e+01 4.870163137556585475e+00 7.954469789732719676e+00 2.687570000000000014e+00 4.870157428125858168e+00 6.375183560786762627e+00 3.583559999999999857e+00 2.312618327669785590e+00 7.928728860823874847e+00 8.958899999999999642e-01 2.312612618239057394e+00 9.508005584774894103e+00 5.375230000000000175e+00 4.870162190326866813e+00 1.740307599574147046e+00 8.062900000000000844e+00 4.870159322585295492e+00 1.610308756231277894e-01 8.958880000000000621e+00 2.312609750497486960e+00 1.714566670665301995e+00 6.271219999999999573e+00 2.312614512698495606e+00 3.293842911297921727e+00 5.375230000000000175e+00 4.870154096472966820e+00 4.847388694653433916e+00 8.062900000000000844e+00 4.870158375355576830e+00 3.268101982389076898e+00 8.958880000000000621e+00 2.312609286586166935e+00 4.821647765744589087e+00 6.271219999999999573e+00 2.312613565468776500e+00 6.400924489695607456e+00 5.375230000000000175e+00 4.870163137556585475e+00 7.954469789732719676e+00 8.062900000000000844e+00 4.870157428125858168e+00 6.375183560786762627e+00 8.958880000000000621e+00 2.312618327669785590e+00 7.928728860823874847e+00 6.271219999999999573e+00 2.312612618239057394e+00 9.508005584774894103e+00 1.075056000000000012e+01 4.870162190326866813e+00 1.740307599574147046e+00 1.343821999999999939e+01 4.870159322585295492e+00 1.610308756231277894e-01 1.433421000000000056e+01 2.312609750497486960e+00 1.714566670665301995e+00 1.164654999999999951e+01 2.312614512698495606e+00 3.293842911297921727e+00 1.075056000000000012e+01 4.870154096472966820e+00 4.847388694653433916e+00 1.343821999999999939e+01 4.870158375355576830e+00 3.268101982389076898e+00 1.433421000000000056e+01 2.312609286586166935e+00 4.821647765744589087e+00 1.164654999999999951e+01 2.312613565468776500e+00 6.400924489695607456e+00 1.075056000000000012e+01 4.870163137556585475e+00 7.954469789732719676e+00 1.343821999999999939e+01 4.870157428125858168e+00 6.375183560786762627e+00 1.433421000000000056e+01 2.312618327669785590e+00 7.928728860823874847e+00 1.164654999999999951e+01 2.312612618239057394e+00 9.856931986614196006e+00 1.612588999999999828e+01 1.208111513277486715e+01 2.089234484731846919e+00 2.687570000000000014e+00 1.208112225334663492e+01 5.099577607808278845e-01 3.583559999999999857e+00 9.523572681258825057e+00 2.063493555823002090e+00 8.958899999999999642e-01 9.523577443459833702e+00 3.642769796455621822e+00 1.612588999999999828e+01 1.208111702723430625e+01 5.196315579811134455e+00 2.687570000000000014e+00 1.208112130611691448e+01 3.617028867546776993e+00 3.583559999999999857e+00 9.523572217347505031e+00 5.170574650902288738e+00 8.958899999999999642e-01 9.523576496230115040e+00 6.749850891534908470e+00 1.612588999999999828e+01 1.208111608000458759e+01 8.303396674890420215e+00 2.687570000000000014e+00 1.208112035888719582e+01 6.724109962626063641e+00 3.583559999999999857e+00 9.523571270117784593e+00 8.277655745981574498e+00 8.958899999999999642e-01 9.523575549000396379e+00 9.856931986614196006e+00 5.375230000000000175e+00 1.208111513277486715e+01 2.089234484731846919e+00 8.062900000000000844e+00 1.208112225334663492e+01 5.099577607808278845e-01 8.958880000000000621e+00 9.523572681258825057e+00 2.063493555823002090e+00 6.271219999999999573e+00 9.523577443459833702e+00 3.642769796455621822e+00 5.375230000000000175e+00 1.208111702723430625e+01 5.196315579811134455e+00 8.062900000000000844e+00 1.208112130611691448e+01 3.617028867546776993e+00 8.958880000000000621e+00 9.523572217347505031e+00 5.170574650902288738e+00 6.271219999999999573e+00 9.523576496230115040e+00 6.749850891534908470e+00 5.375230000000000175e+00 1.208111608000458759e+01 8.303396674890420215e+00 8.062900000000000844e+00 1.208112035888719582e+01 6.724109962626063641e+00 8.958880000000000621e+00 9.523571270117784593e+00 8.277655745981574498e+00 6.271219999999999573e+00 9.523575549000396379e+00 9.856931986614196006e+00 1.075056000000000012e+01 1.208111513277486715e+01 2.089234484731846919e+00 1.343821999999999939e+01 1.208112225334663492e+01 5.099577607808278845e-01 1.433421000000000056e+01 9.523572681258825057e+00 2.063493555823002090e+00 1.164654999999999951e+01 9.523577443459833702e+00 3.642769796455621822e+00 1.075056000000000012e+01 1.208111702723430625e+01 5.196315579811134455e+00 1.343821999999999939e+01 1.208112130611691448e+01 3.617028867546776993e+00 1.433421000000000056e+01 9.523572217347505031e+00 5.170574650902288738e+00 1.164654999999999951e+01 9.523576496230115040e+00 6.749850891534908470e+00 1.075056000000000012e+01 1.208111608000458759e+01 8.303396674890420215e+00 1.343821999999999939e+01 1.208112035888719582e+01 6.724109962626063641e+00 1.433421000000000056e+01 9.523571270117784593e+00 8.277655745981574498e+00 1.164654999999999951e+01 9.523575549000396379e+00 1.020585887177189477e+01 1.612588999999999828e+01 1.929207806353620569e+01 2.438161369889547458e+00 2.687570000000000014e+00 1.929208518410797168e+01 8.588846459385279797e-01 3.583559999999999857e+00 1.673453561202016360e+01 2.412419957662303105e+00 8.958899999999999642e-01 1.673453038590783493e+01 3.991696681613321918e+00 1.612588999999999828e+01 1.929207995799564301e+01 5.545242464968834106e+00 2.687570000000000014e+00 1.929208423687825302e+01 3.965955752704477089e+00 3.583559999999999857e+00 1.673453514810884357e+01 5.519501536059989277e+00 8.958899999999999642e-01 1.673453942699145358e+01 7.098777776692608121e+00 1.612588999999999828e+01 1.929207901076592435e+01 8.652323560048120754e+00 2.687570000000000014e+00 1.929208328964853436e+01 7.073036847783763292e+00 3.583559999999999857e+00 1.673453420087912491e+01 8.626582631139275037e+00 8.958899999999999642e-01 1.673453847976173492e+01 1.020585887177189477e+01 5.375230000000000175e+00 1.929207806353620569e+01 2.438161369889547458e+00 8.062900000000000844e+00 1.929208518410797168e+01 8.588846459385279797e-01 8.958880000000000621e+00 1.673453561202016360e+01 2.412419957662303105e+00 6.271219999999999573e+00 1.673453038590783493e+01 3.991696681613321918e+00 5.375230000000000175e+00 1.929207995799564301e+01 5.545242464968834106e+00 8.062900000000000844e+00 1.929208423687825302e+01 3.965955752704477089e+00 8.958880000000000621e+00 1.673453514810884357e+01 5.519501536059989277e+00 6.271219999999999573e+00 1.673453942699145358e+01 7.098777776692608121e+00 5.375230000000000175e+00 1.929207901076592435e+01 8.652323560048120754e+00 8.062900000000000844e+00 1.929208328964853436e+01 7.073036847783763292e+00 8.958880000000000621e+00 1.673453420087912491e+01 8.626582631139275037e+00 6.271219999999999573e+00 1.673453847976173492e+01 1.020585887177189477e+01 1.075056000000000012e+01 1.929207806353620569e+01 2.438161369889547458e+00 1.343821999999999939e+01 1.929208518410797168e+01 8.588846459385279797e-01 1.433421000000000056e+01 1.673453561202016360e+01 2.412419957662303105e+00 1.164654999999999951e+01 1.673453038590783493e+01 3.991696681613321918e+00 1.075056000000000012e+01 1.929207995799564301e+01 5.545242464968834106e+00 1.343821999999999939e+01 1.929208423687825302e+01 3.965955752704477089e+00 1.433421000000000056e+01 1.673453514810884357e+01 5.519501536059989277e+00 1.164654999999999951e+01 1.673453942699145358e+01 7.098777776692608121e+00 1.075056000000000012e+01 1.929207901076592435e+01 8.652323560048120754e+00 1.343821999999999939e+01 1.929208328964853436e+01 7.073036847783763292e+00 1.433421000000000056e+01 1.673453420087912491e+01 8.626582631139275037e+00 1.164654999999999951e+01 1.673453847976173492e+01 1.739013400775502594e-01 1.791730000000000045e+00 3.591382155440887125e+00 9.516107136598188632e+00 3.585290000000000088e+00 5.917754913697001129e+00 1.706512643816698871e+00 2.685839999999999783e+00 1.264969431169678638e+00 1.529668604611871263e-01 5.373509999999999565e+00 1.264965152287069072e+00 1.727436651801325329e+00 4.479400000000000048e+00 3.591376929328558454e+00 1.748419139710778225e+00 8.976199999999999735e-01 5.917751562637030283e+00 3.280972446843499313e+00 1.791730000000000045e+00 3.591381691529567544e+00 3.301954451434553128e+00 3.585290000000000088e+00 5.917746336524702500e+00 4.813583750582647980e+00 2.685839999999999783e+00 1.264968967258358612e+00 3.260047955540473552e+00 5.373509999999999565e+00 1.264964205057349744e+00 4.834517746880611533e+00 4.479400000000000048e+00 3.591375982098839348e+00 4.855490246476726668e+00 8.976199999999999735e-01 5.917751098725711145e+00 6.388053541922785961e+00 1.791730000000000045e+00 3.591380744299847994e+00 6.409036029832238412e+00 3.585290000000000088e+00 5.917755377608321155e+00 7.920664845661934628e+00 2.685839999999999783e+00 1.264968020028639506e+00 6.367119062306422883e+00 5.373509999999999565e+00 1.264963741146029941e+00 7.941588853646561752e+00 4.479400000000000048e+00 3.591375518187519766e+00 7.962571341556014204e+00 8.976199999999999735e-01 5.917750151495991595e+00 1.739013400775502594e-01 7.167060000000000208e+00 3.591382155440887125e+00 9.516107136598188632e+00 8.960620000000000474e+00 5.917754913697001129e+00 1.706512643816698871e+00 8.061159999999999215e+00 1.264969431169678638e+00 1.529668604611871263e-01 1.074882999999999988e+01 1.264965152287069072e+00 1.727436651801325329e+00 9.854729999999999990e+00 3.591376929328558454e+00 1.748419139710778225e+00 6.272949999999999804e+00 5.917751562637030283e+00 3.280972446843499313e+00 7.167060000000000208e+00 3.591381691529567544e+00 3.301954451434553128e+00 8.960620000000000474e+00 5.917746336524702500e+00 4.813583750582647980e+00 8.061159999999999215e+00 1.264968967258358612e+00 3.260047955540473552e+00 1.074882999999999988e+01 1.264964205057349744e+00 4.834517746880611533e+00 9.854729999999999990e+00 3.591375982098839348e+00 4.855490246476726668e+00 6.272949999999999804e+00 5.917751098725711145e+00 6.388053541922785961e+00 7.167060000000000208e+00 3.591380744299847994e+00 6.409036029832238412e+00 8.960620000000000474e+00 5.917755377608321155e+00 7.920664845661934628e+00 8.061159999999999215e+00 1.264968020028639506e+00 6.367119062306422883e+00 1.074882999999999988e+01 1.264963741146029941e+00 7.941588853646561752e+00 9.854729999999999990e+00 3.591375518187519766e+00 7.962571341556014204e+00 6.272949999999999804e+00 5.917750151495991595e+00 1.739013400775502594e-01 1.254237999999999964e+01 3.591382155440887125e+00 9.516107136598188632e+00 1.433594000000000079e+01 5.917754913697001129e+00 1.706512643816698871e+00 1.343648999999999916e+01 1.264969431169678638e+00 1.529668604611871263e-01 1.612415999999999983e+01 1.264965152287069072e+00 1.727436651801325329e+00 1.523005000000000031e+01 3.591376929328558454e+00 1.748419139710778225e+00 1.164827000000000012e+01 5.917751562637030283e+00 3.280972446843499313e+00 1.254237999999999964e+01 3.591381691529567544e+00 3.301954451434553128e+00 1.433594000000000079e+01 5.917746336524702500e+00 4.813583750582647980e+00 1.343648999999999916e+01 1.264968967258358612e+00 3.260047955540473552e+00 1.612415999999999983e+01 1.264964205057349744e+00 4.834517746880611533e+00 1.523005000000000031e+01 3.591375982098839348e+00 4.855490246476726668e+00 1.164827000000000012e+01 5.917751098725711145e+00 6.388053541922785961e+00 1.254237999999999964e+01 3.591380744299847994e+00 6.409036029832238412e+00 1.433594000000000079e+01 5.917755377608321155e+00 7.920664845661934628e+00 1.343648999999999916e+01 1.264968020028639506e+00 6.367119062306422883e+00 1.612415999999999983e+01 1.264963741146029941e+00 7.941588853646561752e+00 1.523005000000000031e+01 3.591375518187519766e+00 7.962571341556014204e+00 1.164827000000000012e+01 5.917750151495991595e+00 5.228277419168511075e-01 1.791730000000000045e+00 1.080233509788888746e+01 9.865033538437488758e+00 3.585290000000000088e+00 1.312870785614500058e+01 2.055439528974399188e+00 2.685839999999999783e+00 8.475932361931016956e+00 5.018937456188872215e-01 5.373509999999999565e+00 8.475928083048406947e+00 2.076363536959025424e+00 4.479400000000000048e+00 1.080233986008989611e+01 2.097346024868478320e+00 8.976199999999999735e-01 1.312871449339836971e+01 3.629898848682800327e+00 1.791730000000000045e+00 1.080233463397756744e+01 3.650881336592253223e+00 3.585290000000000088e+00 1.312870926728604104e+01 5.162510635740347631e+00 2.685839999999999783e+00 8.475931898019696931e+00 3.608974840698174091e+00 5.373509999999999565e+00 8.475927135818688285e+00 5.183444632038312072e+00 4.479400000000000048e+00 1.080233891286017744e+01 5.204417131634426319e+00 8.976199999999999735e-01 1.312871402948704969e+01 6.736979943762086975e+00 1.791730000000000045e+00 1.080233368674784877e+01 6.757962431671539427e+00 3.585290000000000088e+00 1.312870832005632060e+01 8.269591730819634279e+00 2.685839999999999783e+00 8.475930950789978269e+00 6.716045947464122534e+00 5.373509999999999565e+00 8.475926671907368259e+00 8.290515738804261403e+00 4.479400000000000048e+00 1.080233844894885742e+01 8.311498226713714743e+00 8.976199999999999735e-01 1.312871308225732925e+01 5.228277419168511075e-01 7.167060000000000208e+00 1.080233509788888746e+01 9.865033538437488758e+00 8.960620000000000474e+00 1.312870785614500058e+01 2.055439528974399188e+00 8.061159999999999215e+00 8.475932361931016956e+00 5.018937456188872215e-01 1.074882999999999988e+01 8.475928083048406947e+00 2.076363536959025424e+00 9.854729999999999990e+00 1.080233986008989611e+01 2.097346024868478320e+00 6.272949999999999804e+00 1.312871449339836971e+01 3.629898848682800327e+00 7.167060000000000208e+00 1.080233463397756744e+01 3.650881336592253223e+00 8.960620000000000474e+00 1.312870926728604104e+01 5.162510635740347631e+00 8.061159999999999215e+00 8.475931898019696931e+00 3.608974840698174091e+00 1.074882999999999988e+01 8.475927135818688285e+00 5.183444632038312072e+00 9.854729999999999990e+00 1.080233891286017744e+01 5.204417131634426319e+00 6.272949999999999804e+00 1.312871402948704969e+01 6.736979943762086975e+00 7.167060000000000208e+00 1.080233368674784877e+01 6.757962431671539427e+00 8.960620000000000474e+00 1.312870832005632060e+01 8.269591730819634279e+00 8.061159999999999215e+00 8.475930950789978269e+00 6.716045947464122534e+00 1.074882999999999988e+01 8.475926671907368259e+00 8.290515738804261403e+00 9.854729999999999990e+00 1.080233844894885742e+01 8.311498226713714743e+00 6.272949999999999804e+00 1.312871308225732925e+01 5.228277419168511075e-01 1.254237999999999964e+01 1.080233509788888746e+01 9.865033538437488758e+00 1.433594000000000079e+01 1.312870785614500058e+01 2.055439528974399188e+00 1.343648999999999916e+01 8.475932361931016956e+00 5.018937456188872215e-01 1.612415999999999983e+01 8.475928083048406947e+00 2.076363536959025424e+00 1.523005000000000031e+01 1.080233986008989611e+01 2.097346024868478320e+00 1.164827000000000012e+01 1.312871449339836971e+01 3.629898848682800327e+00 1.254237999999999964e+01 1.080233463397756744e+01 3.650881336592253223e+00 1.433594000000000079e+01 1.312870926728604104e+01 5.162510635740347631e+00 1.343648999999999916e+01 8.475931898019696931e+00 3.608974840698174091e+00 1.612415999999999983e+01 8.475927135818688285e+00 5.183444632038312072e+00 1.523005000000000031e+01 1.080233891286017744e+01 5.204417131634426319e+00 1.164827000000000012e+01 1.312871402948704969e+01 6.736979943762086975e+00 1.254237999999999964e+01 1.080233368674784877e+01 6.757962431671539427e+00 1.433594000000000079e+01 1.312870832005632060e+01 8.269591730819634279e+00 1.343648999999999916e+01 8.475930950789978269e+00 6.716045947464122534e+00 1.612415999999999983e+01 8.475926671907368259e+00 8.290515738804261403e+00 1.523005000000000031e+01 1.080233844894885742e+01 8.311498226713714743e+00 1.164827000000000012e+01 1.312871308225732925e+01 8.717546270745512027e-01 1.791730000000000045e+00 1.801329802865022600e+01 1.021396042359518930e+01 3.585290000000000088e+00 2.033967078690633912e+01 2.404366414132099283e+00 2.685839999999999783e+00 1.568689529269235550e+01 8.508206307765874277e-01 5.373509999999999565e+00 1.568689101380974549e+01 2.425289938798325995e+00 4.479400000000000048e+00 1.801329280253789733e+01 2.446272910026178415e+00 8.976199999999999735e-01 2.033967742415970648e+01 3.978825733840500423e+00 1.791730000000000045e+00 1.801329756473890598e+01 3.999808221749953319e+00 3.585290000000000088e+00 2.033967219804737780e+01 5.511437520898048170e+00 2.685839999999999783e+00 1.568689482878103370e+01 3.957901725855874187e+00 5.373509999999999565e+00 1.568689006658002505e+01 5.532371033877613087e+00 4.479400000000000048e+00 1.801329185530817867e+01 5.553344016792126858e+00 8.976199999999999735e-01 2.033967696024838645e+01 7.085906828919787515e+00 1.791730000000000045e+00 1.801329661750918731e+01 7.106889316829239078e+00 3.585290000000000088e+00 2.033967125081765914e+01 8.618518615977334818e+00 2.685839999999999783e+00 1.568689388155131503e+01 7.064972832621823073e+00 5.373509999999999565e+00 1.568688960266870680e+01 8.639442140643561530e+00 4.479400000000000048e+00 1.801329139139685864e+01 8.660425111871415282e+00 8.976199999999999735e-01 2.033967601301866779e+01 8.717546270745512027e-01 7.167060000000000208e+00 1.801329802865022600e+01 1.021396042359518930e+01 8.960620000000000474e+00 2.033967078690633912e+01 2.404366414132099283e+00 8.061159999999999215e+00 1.568689529269235550e+01 8.508206307765874277e-01 1.074882999999999988e+01 1.568689101380974549e+01 2.425289938798325995e+00 9.854729999999999990e+00 1.801329280253789733e+01 2.446272910026178415e+00 6.272949999999999804e+00 2.033967742415970648e+01 3.978825733840500423e+00 7.167060000000000208e+00 1.801329756473890598e+01 3.999808221749953319e+00 8.960620000000000474e+00 2.033967219804737780e+01 5.511437520898048170e+00 8.061159999999999215e+00 1.568689482878103370e+01 3.957901725855874187e+00 1.074882999999999988e+01 1.568689006658002505e+01 5.532371033877613087e+00 9.854729999999999990e+00 1.801329185530817867e+01 5.553344016792126858e+00 6.272949999999999804e+00 2.033967696024838645e+01 7.085906828919787515e+00 7.167060000000000208e+00 1.801329661750918731e+01 7.106889316829239078e+00 8.960620000000000474e+00 2.033967125081765914e+01 8.618518615977334818e+00 8.061159999999999215e+00 1.568689388155131503e+01 7.064972832621823073e+00 1.074882999999999988e+01 1.568688960266870680e+01 8.639442140643561530e+00 9.854729999999999990e+00 1.801329139139685864e+01 8.660425111871415282e+00 6.272949999999999804e+00 2.033967601301866779e+01 8.717546270745512027e-01 1.254237999999999964e+01 1.801329802865022600e+01 1.021396042359518930e+01 1.433594000000000079e+01 2.033967078690633912e+01 2.404366414132099283e+00 1.343648999999999916e+01 1.568689529269235550e+01 8.508206307765874277e-01 1.612415999999999983e+01 1.568689101380974549e+01 2.425289938798325995e+00 1.523005000000000031e+01 1.801329280253789733e+01 2.446272910026178415e+00 1.164827000000000012e+01 2.033967742415970648e+01 3.978825733840500423e+00 1.254237999999999964e+01 1.801329756473890598e+01 3.999808221749953319e+00 1.433594000000000079e+01 2.033967219804737780e+01 5.511437520898048170e+00 1.343648999999999916e+01 1.568689482878103370e+01 3.957901725855874187e+00 1.612415999999999983e+01 1.568689006658002505e+01 5.532371033877613087e+00 1.523005000000000031e+01 1.801329185530817867e+01 5.553344016792126858e+00 1.164827000000000012e+01 2.033967696024838645e+01 7.085906828919787515e+00 1.254237999999999964e+01 1.801329661750918731e+01 7.106889316829239078e+00 1.433594000000000079e+01 2.033967125081765914e+01 8.618518615977334818e+00 1.343648999999999916e+01 1.568689388155131503e+01 7.064972832621823073e+00 1.612415999999999983e+01 1.568688960266870680e+01 8.639442140643561530e+00 1.523005000000000031e+01 1.801329139139685864e+01 8.660425111871415282e+00 1.164827000000000012e+01 2.033967601301866779e+01