-2.824532671729999947e+03
-2.824493423569999777e+03
-2.824376328790000116e+03
-2.824182249259999935e+03
-2.823912612680000166e+03
