6.118211235424619171e-03 -1.614999999999999899e-03 -1.240153731891308108e-03 6.683744138642194223e-03 -1.814000000000000074e-03 -4.565712312072379422e-04 -5.993633894964609313e-03 1.593000000000000015e-03 -8.613232454377110553e-04 -5.515481995587778047e-03 1.415000000000000025e-03 4.130561176729477990e-04 6.606657576483046350e-03 -1.685999999999999999e-03 6.075909067084776154e-05 6.814043015594983300e-03 -2.498999999999999919e-03 -6.811312513907998543e-04 -6.168025145008870086e-03 1.381999999999999982e-03 2.934549548709022501e-04 -5.923504955752019636e-03 2.018999999999999961e-03 1.534732523316283018e-04 6.652376934678933852e-03 -1.688999999999999963e-03 -9.806676903781879479e-04 5.485484620818000846e-03 -1.840999999999999972e-03 -5.777988185944804220e-04 -6.029622496104959303e-03 7.829999999999999504e-04 3.398198853289602014e-04 -6.286789570191748944e-03 1.209999999999999921e-03 1.770590300668931755e-04 6.670340482049019054e-03 -3.589999999999999984e-04 -4.439086094434702644e-04 6.647947984045630108e-03 -1.595999999999999979e-03 6.576930457004491145e-05 -6.095771606693918022e-03 2.445999999999999824e-03 -1.996134239580078210e-04 -5.828068671948427940e-03 1.840000000000000056e-03 -1.915425672096794294e-04 5.757005850991774379e-03 -9.629999999999999888e-04 -4.287477482698407220e-04 5.974928191726677079e-03 -1.588999999999999918e-03 -5.183850920982967670e-04 -5.837396236608991852e-03 1.330999999999999935e-03 -1.188178535258354018e-05 -5.846852259113761302e-03 1.748999999999999904e-03 4.961689834081667045e-04 6.744496460686725745e-03 -1.235999999999999903e-03 1.782343731837421699e-04 6.674659514368045006e-03 -1.647000000000000026e-03 7.212443186993669269e-04 -5.592908241887365774e-03 1.351999999999999903e-03 -1.318385293772462291e-04 -6.837854075002653374e-03 2.505999999999999981e-03 5.200938847646518516e-04 6.680844628617539117e-03 -2.183000000000000045e-03 -2.061384201747836896e-04 6.859361183250253097e-03 -1.469000000000000037e-03 -5.101217087320088347e-04 -5.956127906737425891e-03 9.669999999999999776e-04 2.862050988079124694e-04 -6.366390428991284753e-03 1.577999999999999976e-03 -1.644928741561345732e-04 5.747018018099477217e-03 -1.567999999999999949e-03 -5.582920060277235275e-05 6.557584861876550146e-03 -6.599999999999999964e-04 -7.878608882838958024e-04 -6.854834447898658888e-03 1.988000000000000184e-03 3.346979114094772510e-04 -6.050067905357683906e-03 2.197999999999999867e-03 -8.896287655875750530e-04 6.646723871039491617e-03 -1.286000000000000034e-03 2.680648842235514614e-04 5.648889847229623951e-03 -1.330999999999999935e-03 -8.630298337056812805e-04 -5.579424539364085875e-03 1.719999999999999958e-03 -5.359625075897048218e-04 -5.861336234305912322e-03 2.092999999999999809e-03 -2.169643943428912862e-04 6.104034509615159469e-03 -1.128000000000000096e-03 -1.057254796833382140e-03 6.834165198308666048e-03 -1.726000000000000104e-03 -2.445936267089894806e-04 -6.112752460034968395e-03 1.600000000000000077e-03 -7.574446265809964187e-04 -5.747855556460386948e-03 1.565999999999999901e-03 2.040428927148508630e-04 6.681859997626844912e-03 -1.160000000000000007e-03 1.251997288901480457e-04 6.494577961476138799e-03 -2.573000000000000200e-03 -7.657898551877163331e-04 -6.030814734872569707e-03 1.485999999999999908e-03 2.738003536226461267e-04 -6.079870351284274478e-03 2.443999999999999992e-03 1.910746230518760769e-04 6.605996107138698351e-03 -1.224999999999999960e-03 -6.770712166887147242e-04 5.704179950695014226e-03 -2.031999999999999952e-03 -8.997450139283970361e-04 -6.006005484724559126e-03 9.600000000000000243e-04 -6.179091728154988724e-05 -5.893700908341945044e-03 1.639000000000000049e-03 3.142206279182238561e-04 6.667569189646047056e-03 -6.639999999999999852e-04 -7.080833999485773795e-04 6.654262597103594197e-03 -1.350000000000000071e-03 -3.830604244608295573e-04 -5.881828614137599685e-03 2.351999999999999924e-03 -3.921787270010211493e-04 -5.772456783279131254e-03 1.866000000000000037e-03 -5.526524090011124312e-04 5.754992051019606515e-03 -1.446999999999999936e-03 -4.496748744383353849e-04 6.055317856676327264e-03 -1.237000000000000035e-03 -6.364084023775934667e-04 -5.953438101599694068e-03 1.541999999999999968e-03 -1.754644420417314922e-04 -5.862076948838622174e-03 1.441999999999999922e-03 5.739203685926046471e-05 6.769837200925566886e-03 -1.381999999999999982e-03 -2.705148294719813000e-04 6.626876583024927242e-03 -1.430999999999999980e-03 6.234394544427315386e-04 -5.776210129117743779e-03 1.771000000000000005e-03 -2.991747721275298606e-04 -6.882705461934239370e-03 2.148000000000000170e-03 2.768617453834641096e-05 6.610942172189967873e-03 -2.344999999999999862e-03 -4.920940925881692228e-04 6.621574776602693474e-03 -1.521999999999999915e-03 -5.827138902231369629e-04 -5.881699115329129708e-03 1.245000000000000013e-03 8.637428284225474103e-05 -6.174099299979821966e-03 1.066000000000000107e-03 -1.838092325990868569e-04 5.831015953293788683e-03 -1.915999999999999951e-03 -4.923991799681568318e-04 6.760734197269840234e-03 -7.500000000000000156e-04 -8.517541393301876094e-04 -6.873055311328025302e-03 2.158000000000000196e-03 1.443561132255566143e-04 -5.881185123803959851e-03 1.557999999999999923e-03 -1.103040588349758029e-03 6.659692220776640068e-03 -1.523000000000000048e-03 -1.877372389034098707e-06 5.679708783203959478e-03 -1.487000000000000040e-03 -7.433795383219680150e-04 -5.643043456230479107e-03 1.469999999999999953e-03 -3.817074155611208434e-04 -6.231499947171403528e-03 1.714999999999999945e-03 -2.320913794236366856e-04 5.777337258147335550e-03 -1.007000000000000083e-03 -1.534086230386545551e-04 6.681844420841364512e-03 -1.206000000000000041e-03 5.386837065209188966e-04 -5.936572531542593997e-03 1.835000000000000043e-03 -1.564903376484929470e-03 -5.779626433263666645e-03 2.007999999999999802e-03 -1.031865927298644637e-03 6.946986809035070320e-03 -1.224000000000000045e-03 1.300759499328260236e-03 6.333316193993502111e-03 -2.412000000000000081e-03 1.430663723578598934e-04 -6.099687206395446211e-03 1.704999999999999918e-03 -8.391716058922062994e-04 -6.087250186600779746e-03 2.729999999999999788e-03 -8.718108543306598082e-04 6.607512293112920501e-03 -1.101999999999999898e-03 7.405121851540451185e-04 5.962911062150906376e-03 -1.789000000000000009e-03 3.091628452423501026e-04 -6.127235394262854108e-03 1.182000000000000108e-03 -6.636350075851241365e-04 -5.889610360662293417e-03 1.721000000000000090e-03 -8.012807245774513417e-04 6.642470188681007595e-03 -5.320000000000000293e-04 -1.922675024128801596e-04 6.925912365195747121e-03 -1.595000000000000064e-03 -5.003268028285418664e-04 -6.073216934901786400e-03 2.132999999999999913e-03 1.216719426249556515e-04 -5.721484350871805340e-03 1.500999999999999947e-03 -6.992873677745256112e-04 5.626223575565556662e-03 -1.242999999999999964e-03 -2.762485796349239769e-04 5.802274725917028371e-03 -1.309999999999999967e-03 -1.003607495480411801e-03 -5.585062186366397154e-03 1.113000000000000057e-03 1.751410129586590981e-04 -6.035568033083356203e-03 1.456999999999999962e-03 -3.416892126220785275e-04 6.858475633346115298e-03 -1.041999999999999958e-03 -1.146166951084552263e-04 6.547726687941071537e-03 -1.737999999999999962e-03 1.877557456490532245e-04 -5.954275720034778521e-03 1.219999999999999947e-03 -8.932328814095528090e-05 -6.774863872426161587e-03 2.088000000000000012e-03 4.249129434101044453e-05 6.683905511689193155e-03 -2.262000000000000122e-03 -2.463333327237825546e-04 6.842785043713486490e-03 -2.024999999999999890e-03 4.508024462344785519e-04 -6.110368142648096162e-03 1.209000000000000005e-03 -7.495506395909729350e-04 -6.158278731093677454e-03 1.013999999999999927e-03 1.017598651690694014e-04 5.841230429119452852e-03 -2.023000000000000059e-03 -1.233182585666659970e-05 6.560727552510142377e-03 -1.118999999999999986e-03 1.460786833670657677e-04 -6.690382618832595336e-03 2.007000000000000103e-03 -3.840903716870311055e-04 -6.015382742486011583e-03 1.663999999999999898e-03 -9.383621163503277950e-04 6.581380824943783812e-03 -1.631000000000000071e-03 1.590956852408371026e-04 5.667965427288866251e-03 -1.876999999999999979e-03 7.065058961436639574e-06 -5.629077155975512579e-03 1.479000000000000063e-03 -1.334495924337957516e-03 -6.113863371685685465e-03 1.706999999999999967e-03 -2.217649033551641097e-04 2.970898945327688227e-04 4.090000000000000211e-04 1.546448380828312208e-03 -1.628467833478475452e-03 -6.329999999999999906e-04 -1.646217031659531716e-03 1.919500190790038698e-03 8.310000000000000329e-04 3.108860244134014402e-03 1.777634107012892629e-03 8.009999999999999542e-04 3.259893400340642400e-03 3.405862283146096040e-04 -6.499999999999999702e-04 6.452929730614060831e-04 -1.857731698994459155e-03 -4.580000000000000195e-04 -1.521991108565079335e-03 -8.348114107304419268e-05 4.139999999999999800e-04 1.419693945568953298e-03 -1.822192540160479535e-03 -2.249999999999999938e-04 -1.449624208746355756e-03 1.437918492410334348e-03 6.019999999999999961e-04 3.129159696976871897e-03 1.479563280082922278e-03 7.550000000000000287e-04 3.100112981849252429e-03 1.495192123092848474e-04 -2.229999999999999994e-04 4.623137518508518167e-04 -1.325580360231532135e-03 -3.719999999999999891e-04 -1.717939960699569951e-03 -1.358555171349046611e-04 6.899999999999999667e-05 1.289072642818862857e-03 -1.756238038118010511e-03 -9.790000000000000525e-04 -1.907346836175162182e-03 1.639392430785108472e-03 7.299999999999999632e-04 3.113403677309528172e-03 2.253335298078044859e-03 2.120000000000000031e-04 3.014615238207942090e-03 -1.950840461586639927e-05 -5.199999999999999544e-04 7.968741570344364941e-04 -1.937799178369330189e-03 -1.369999999999999961e-04 -1.417999768797988027e-03 -3.092024066016042317e-04 -2.539999999999999940e-04 2.722625052257034530e-04 -1.324083834825676891e-03 -6.639999999999999852e-04 -3.052572030002458341e-03 1.868640719515612210e-03 -4.110000000000000155e-04 3.402661731845846044e-03 1.484429459352433695e-03 -8.490000000000000368e-04 3.800696538821093321e-03 -2.560391443154564012e-04 -7.500000000000000156e-04 5.381131684771846258e-06 -1.332363595719187341e-03 -4.389999999999999914e-04 -2.375380442961135073e-03 -2.154249020667831983e-04 -5.410000000000000312e-04 3.688429361795028736e-04 -1.621139052523819235e-03 -3.370000000000000057e-04 -2.694796684795009497e-03 1.949691293290388644e-03 -3.510000000000000208e-04 3.587960961446995650e-03 1.898590002667986188e-03 -5.140000000000000254e-04 3.752623216067551941e-03 2.329535429517138798e-04 -3.879999999999999985e-04 2.209992009629084130e-04 -1.925862575168709075e-03 -8.530000000000000256e-04 -2.226521578957758006e-03 1.571868766626387725e-04 1.320000000000000101e-04 -1.447663144693694926e-04 -1.600228143734198569e-03 -6.759999999999999516e-04 -2.779906812826825769e-03 2.278049165732991439e-03 -3.930000000000000117e-04 3.670186916017114352e-03 1.971278927913139474e-03 -5.079999999999999880e-04 3.578907010298761938e-03 5.751488951127007673e-06 -3.829999999999999854e-04 1.188609287143805969e-04 -1.969521242887639374e-03 -1.209999999999999921e-03 -2.280474528209935209e-03 1.348442319084848322e-04 3.890000000000000228e-04 1.545288656892624193e-03 -1.793290900626810444e-03 1.289999999999999914e-04 -1.473048453286273122e-03 2.120572538253323244e-03 2.590000000000000071e-04 3.995177857117985891e-03 1.894659066403500246e-03 5.779999999999999548e-04 3.712766626398030824e-03 1.877187042676933652e-04 7.919999999999999523e-04 2.203502368518822207e-03 -1.670001021279125548e-03 4.820000000000000066e-04 -2.525236937185632632e-03 6.708531448407463124e-05 2.660000000000000146e-04 1.945030735124916388e-03 -2.007846470168329379e-03 -3.190000000000000019e-04 -1.582806858789971832e-03 1.620141902747743601e-03 1.044000000000000006e-03 3.998368319072283759e-03 2.213979205076742948e-03 7.919999999999999523e-04 3.856501274405046455e-03 -3.374405749365707858e-04 5.999999999999999474e-04 2.585330512407741938e-03 -1.397303529494093449e-03 7.640000000000000306e-04 -2.207045048580420429e-03 3.599041081668721896e-04 -8.299999999999999815e-05 2.016962328087614116e-03 -1.231545299414907053e-03 4.659999999999999971e-04 -1.781559197862660551e-03 1.604837567463647920e-03 9.049999999999999885e-04 4.261415420028580661e-03 1.619029870058587370e-03 1.036000000000000029e-03 3.665032507339883571e-03 -4.974306182407105649e-04 1.350000000000000017e-04 2.734237147731825076e-03 -1.747651668435201960e-03 9.139999999999999904e-04 -2.185086416097920155e-03 2.915934795640452520e-04 -9.160000000000000390e-04 -6.568609005533307963e-04 -1.756384715195445341e-03 -2.660000000000000146e-04 -3.213866632613714136e-03 1.366662264019805409e-03 -2.369999999999999874e-04 2.442801517951112208e-03 1.081673068256580302e-03 -3.600000000000000227e-04 2.408535524630765323e-03 4.366821397565413322e-04 -1.373000000000000088e-03 -3.895609179802928044e-04 -1.454947277220439801e-03 -1.211000000000000054e-03 -3.377627039877083206e-03 7.336493041071555094e-05 -7.839999999999999747e-04 -6.563128727869283830e-04 -1.813608252406200948e-03 -4.490000000000000176e-04 -3.341249782162974708e-03 1.044120269598780527e-03 -4.600000000000000139e-04 2.439386575066151801e-03 9.567387853129913399e-04 -2.439999999999999949e-04 2.557748208224926330e-03 1.890198203853173651e-04 -8.829999999999999958e-04 -7.490110196128641233e-04 -1.482930852018048487e-03 -1.079000000000000098e-03 -3.521442614630121599e-03 1.185859539410886960e-04 -1.134999999999999941e-03 -8.597362220634198948e-04 -1.787719324252608818e-03 -6.390000000000000280e-04 -3.447625359242763744e-03 1.463226637743079029e-03 -4.560000000000000251e-04 2.390072761779248219e-03 1.457410919869849475e-03 -6.269999999999999532e-04 2.435406826516694698e-03 1.344066029014064523e-04 -1.206999999999999957e-03 -5.120945860839612495e-04 -1.770690539442503581e-03 -6.319999999999999663e-04 -3.199158016342552435e-03 -1.471345746257158975e-04 3.229999999999999907e-04 -2.061296120156190287e-04 -1.542924880890034081e-03 9.070000000000000371e-04 -3.292275172571465687e-03 1.313918251359157737e-03 1.479999999999999925e-04 3.008011274703818825e-03 9.646988429311245845e-04 8.019999999999999785e-04 3.818837276246180717e-03 -4.288551842847183713e-05 6.859999999999999779e-04 -1.621167243350333772e-04 -1.423257727534053005e-03 6.290000000000000018e-04 -2.743417474795734144e-03 -1.638243158887750669e-04 2.400000000000000061e-05 1.110477083220307991e-04 -1.892918079201919707e-03 1.103999999999999947e-03 -2.869865701636666391e-03 1.427736771639115864e-03 -1.200000000000000030e-05 3.063575151829887010e-03 1.337923278719922770e-03 8.869999999999999846e-04 3.669624272355322559e-03 2.625156108654649856e-04 1.083999999999999894e-03 1.284622670356231104e-04 -1.679538771271659337e-03 -9.600000000000000243e-05 -2.929248114413540889e-03 2.550556495446797784e-04 6.279999999999999775e-04 -6.050343921095241656e-04 -1.607752093754563844e-03 7.529999999999999801e-04 -3.162990863886238659e-03 1.583425681560762972e-03 5.700000000000000314e-05 3.136135218859963970e-03 1.312324261531708962e-03 9.060000000000000128e-04 3.719920299226214810e-03 -1.273831495492604637e-04 1.162000000000000055e-03 5.722353721075564096e-05 -2.131960953539193369e-03 -3.020000000000000223e-04 -2.844282421382281125e-03 1.320233264787993102e-04 9.719999999999999907e-04 2.869544236729455939e-04 -1.890436457541802735e-03 -6.750000000000000357e-04 -2.363393746288755710e-03 1.421405540831406069e-03 9.020000000000000240e-04 3.118945861744602029e-03 1.407324597885881374e-03 -6.899999999999999667e-05 2.621044539145670708e-03 1.205521427408997280e-04 -2.610000000000000015e-04 -2.811550833269385033e-04 -2.293546428005918073e-03 5.400000000000000069e-04 -3.100772449339243668e-03 1.153172877626918022e-04 6.290000000000000018e-04 4.589628777396452227e-04 -2.266432025585224993e-03 -8.809999999999999472e-04 -2.354210456480399730e-03 1.190579079281456820e-03 1.534999999999999906e-03 3.314330468733815965e-03 1.718283168103675431e-03 -1.200000000000000030e-05 2.467836289994049769e-03 -1.850251356437740023e-04 -4.339999999999999782e-04 2.522373865627437197e-04 -1.884814547473320431e-03 9.560000000000000355e-04 -2.785158365628953147e-03 4.370379612016811119e-04 4.850000000000000253e-04 6.936878407963324202e-04 -1.373928097239146377e-03 -3.379999999999999758e-04 -2.551577469648299602e-03 7.705543261044006534e-04 1.539000000000000003e-03 3.282593948468465975e-03 1.440349860450344495e-03 2.199999999999999943e-05 2.144891903919792647e-03 -2.704412318714943982e-04 -8.620000000000000275e-04 3.284547763449765828e-04 -2.061140432375561070e-03 8.919999999999999978e-04 -2.725566568261850783e-03 3.375397209158226253e-04 5.789999999999999791e-04 -6.590841651899009227e-04 -2.109873703064139416e-03 3.989999999999999949e-04 -2.698179192922221803e-03 1.215919979668646537e-03 -3.220000000000000206e-04 2.989726342500697350e-03 1.301031468961424617e-03 7.979999999999999897e-04 4.065870400882457512e-03 5.561241715884663803e-04 -4.040000000000000080e-04 4.856891040316242756e-04 -2.176812340470779365e-03 4.840000000000000010e-04 -3.336690131608586671e-03 1.022987644796102060e-04 6.710000000000000469e-04 -6.997620758414570697e-04 -2.512144934054731139e-03 6.340000000000000149e-04 -2.652683514915253962e-03 1.058620141873108664e-03 -6.449999999999999570e-04 2.987326128031648001e-03 9.714812776770372386e-04 7.460000000000000268e-04 3.855552376394722185e-03 1.134157282558545033e-04 1.200000000000000030e-05 2.654943660784835156e-05 -2.017321993093116293e-03 5.140000000000000254e-04 -3.702826484752265012e-03 -1.388869281932567231e-04 2.439999999999999949e-04 -8.012237023310288340e-04 -2.551888722739701840e-03 -1.099999999999999971e-05 -2.625731126134953682e-03 1.197602852930299824e-03 -4.180000000000000230e-04 3.107749572705819762e-03 1.826996172065547142e-03 1.699999999999999987e-05 3.617926061607372890e-03 1.041530331107869568e-04 -2.500000000000000120e-05 5.385955307035356987e-04 -2.119605020638897809e-03 7.029999999999999574e-04 -3.292403310118974073e-03 -2.692809474165870198e-04 1.000000000000000048e-04 6.007168811998088139e-04 -2.106250336479042161e-03 -1.271999999999999910e-03 -3.802645068906894410e-03 1.267682819709569980e-03 5.150000000000000498e-04 3.624966933451006460e-03 1.218046340402843255e-03 3.959999999999999762e-04 2.847457306551099462e-03 -1.441872932803549105e-04 -8.409999999999999507e-04 -8.900713591934552357e-04 -1.930567381391221559e-03 -2.359999999999999902e-04 -2.716867237446143456e-03 -1.863617293377668163e-04 -3.080000000000000055e-04 6.798016665456454522e-04 -2.392190031736075775e-03 -1.064999999999999974e-03 -3.835863899053582136e-03 1.313001067439013630e-03 5.450000000000000200e-04 3.858049014321100409e-03 1.538864525891252017e-03 5.619999999999999996e-04 2.835938111269971189e-03 3.802957405358242345e-04 -5.850000000000000165e-04 -9.755204506981435307e-04 -2.531944290600241735e-03 -6.520000000000000188e-04 -2.606672804418851391e-03 2.903378126160745774e-04 2.770000000000000110e-04 6.203994330520566918e-05 -2.232441327334866617e-03 -1.330999999999999935e-03 -3.741474538201127169e-03 1.786011972921389829e-03 2.930000000000000204e-04 3.702005163770229548e-03 1.432794756859018855e-03 5.419999999999999471e-04 2.588775808121920700e-03 -6.829224922124872991e-05 -4.970000000000000459e-04 -9.147683688761340049e-04 -2.914625950006422168e-03 -7.020000000000000415e-04 -2.880497104936777675e-03 1.418965967547131612e-04 -3.020000000000000223e-04 -1.474581417158588254e-03 -2.282028353763228962e-03 -5.680000000000000370e-04 -3.648969798809067674e-03 1.830667550193873115e-03 -2.020000000000000040e-04 2.266168864111225111e-03 1.178801687125130386e-03 -7.829999999999999504e-04 2.657131645671878453e-03 2.539750106490068840e-04 5.590000000000000351e-04 -1.579120544469559111e-03 -2.499259272695438048e-03 -9.380000000000000317e-04 -4.579558176052126069e-03 1.908883045410126396e-04 -4.510000000000000120e-04 -9.793705402907817558e-04 -2.414083394332208407e-03 -7.569999999999999689e-04 -3.543464034699587897e-03 1.496575126846585307e-03 4.420000000000000101e-04 2.706831152788094497e-03 1.807050218516776871e-03 -8.159999999999999936e-04 2.419489513876526329e-03 -3.234131686522960557e-04 2.970000000000000092e-04 -9.524819800617130225e-04 -2.047851738769640786e-03 -7.050000000000000060e-04 -4.437209174246596437e-03 5.877785639951812417e-04 -7.290000000000000473e-04 -1.156760286190601549e-03 -1.744866640952756663e-03 -2.110000000000000059e-04 -3.762063982083537275e-03 1.208428144109332646e-03 3.110000000000000243e-04 2.524544794715370428e-03 1.360685253173751210e-03 -5.900000000000000296e-04 2.339970222416406283e-03 -2.591173658044236506e-04 -3.100000000000000135e-05 -9.065358187841098285e-04 -2.527097371528224702e-03 -4.809999999999999823e-04 -4.347942027536146579e-03