2.156003215465298033e-03 -4.046099980882165992e-02 2.815100002851473118e-02 2.108996926654077390e-03 3.869200013289202100e-02 -2.664200005028990320e-02 -2.157000090363239957e-03 1.126999835937574209e-03 -9.289999892194055137e-04 -2.109999910279357956e-03 -1.115000158603937815e-03 9.770000127606423730e-04 1.498100090141178849e-02 -1.294599888104326288e-02 -1.407600006976150037e-02 -3.214800001451169342e-02 2.109975689001825094e-04 2.620001772415511058e-04 1.535699908704577822e-02 1.312000117580669131e-02 1.436899990212632018e-02 1.812000000046378075e-03 -1.999862976951809716e-06 -1.900000999998038107e-05 1.288000006109899561e-03 -1.309999032754550813e-04 -6.880000069787211214e-04 -1.322999694473445381e-03 -4.196000102197414670e-03 -2.140999988505945702e-03 -1.300000308054970145e-03 4.235999903909147025e-03 2.231000002944571146e-03 1.335999990909041493e-03 1.710001017372420398e-04 6.959999924546652044e-04 9.480000034419978298e-04 -4.499992829552349252e-05 6.999994812126445212e-06 -7.280001995743246457e-04 2.556999943821423697e-03 -1.120999998535672460e-03 5.300000004648196782e-04 -5.999959913965680137e-06 1.999997080469853740e-06 -7.479997950653148597e-04 -2.627000055439697532e-03 1.133000006752900215e-03 -2.690008281974647867e-03 1.109049998156997618e-01 1.916699990406801543e-02 -2.832991606270343805e-03 -1.096320001957599988e-01 1.852100012514657640e-02 2.744999998570185010e-03 1.561000228710322704e-03 2.112899998328874804e-02 2.770000223774435940e-03 -1.547999771195891425e-03 1.932999998625626117e-02 -1.849999474943933749e-03 -5.255000116821928122e-03 2.312000001546082872e-02 1.136000095103645302e-03 2.190001061232516087e-04 2.022999999351069236e-02 -1.815000317986506908e-03 5.467999880023623714e-03 1.731200000455668242e-02 2.529000114954112199e-03 -4.499978854477515184e-05 2.020899998608523609e-02 1.479999652474842402e-04 1.883000030675367536e-03 1.950399999730217590e-02 -1.849997458405641226e-04 -1.863999993509621658e-03 2.050500000288307811e-02 -1.570000316281943071e-04 1.873000008036657376e-03 1.993299999899571934e-02 1.980002556750881854e-04 -1.851999964104725964e-03 2.094400000075698903e-02 9.887000132828784385e-03 -2.819992320663286187e-04 2.019999994570687019e-02 -3.611000271955109100e-03 5.240999749414808513e-03 2.254100001469708583e-02 -2.525999890247225023e-03 2.099982910631496540e-05 2.017100001392218081e-02 -3.747999486927864037e-03 -5.483000265657208931e-03 1.782500002616525803e-02 1.415599989143906737e-02 -3.799894954339946618e-05 -2.018800007810111694e-02 -7.246000115233881302e-03 -5.000005757127050582e-04 -2.772699995950369048e-02 4.299998889228773919e-04 -3.999987634327170353e-06 -2.017800000236954355e-02 -7.342000106974941494e-03 4.889994320568879322e-04 -1.267999995996167174e-02 1.999000710369629782e-03 -1.200799988460883420e-02 -3.583399999903968264e-02 2.058999054235136506e-03 1.219500015147843668e-02 -4.249000023546681271e-03 -2.010000301614450497e-03 2.432999826701103766e-03 -2.130599999133535663e-02 -2.045999924217486998e-03 -2.395000173804064884e-03 -1.908599998631406447e-02 -2.736000292593439645e-03 2.376999772659563800e-03 -2.043899998727200309e-02 1.516999888235034347e-03 4.000094560779708014e-06 -2.019300000837761372e-02 -2.744999931148446246e-03 -2.367000227540635385e-03 -1.995799998248365750e-02 3.963999887978888505e-03 6.000279609041488525e-06 -2.021200002188670158e-02 -9.799999032225144204e-04 -2.554000091559034506e-03 -1.746099999203941031e-02 9.759999124706613847e-04 -3.489999468006877749e-04 -2.063900000503877258e-02 9.689998612436021615e-04 3.930000535549032538e-04 -1.975300000574129952e-02 -9.680003163255270805e-04 2.512999903940594387e-03 -2.287499999716695667e-02
2.156003212956811993e-03 -4.042899980883764288e-02 2.813500002848276851e-02 2.106996928908073594e-03 3.866300013275175695e-02 -2.663100005024989642e-02 -2.153000090298649600e-03 1.125999836238097572e-03 -9.309999892404860304e-04 -2.104999910366027981e-03 -1.114000158227784146e-03 9.750000127320441069e-04 1.496700090069964274e-02 -1.293599888209409632e-02 -1.406800006969421112e-02 -3.211900001443054181e-02 2.099975710944588755e-04 2.630001770824741143e-04 1.534199908787606259e-02 1.310800117465825247e-02 1.435499990222110361e-02 1.807000000116488429e-03 -2.999863356101972517e-06 -2.000000997138222511e-05 1.285000006115419270e-03 -1.309999035013469776e-04 -6.870000069621614268e-04 -1.320999695061927937e-03 -4.188000102043156793e-03 -2.137999988524976521e-03 -1.298000307606708443e-03 4.229999904059408844e-03 2.230000002939525137e-03 1.330999990682150708e-03 1.740001013590907451e-04 6.959999924792678117e-04 9.460000035877385140e-04 -4.699992844778287692e-05 5.999994825163909678e-06 -7.270001992773234825e-04 2.552999943896055741e-03 -1.121999998537196765e-03 5.310000004592999208e-04 -5.999959839334298334e-06 9.999970749499984127e-07 -7.489997952276150704e-04 -2.625000055517326143e-03 1.131000006756422522e-03 -2.682008276757807692e-03 1.108349998162908162e-01 1.915299990409377942e-02 -2.827991611204517305e-03 -1.095680001953988347e-01 1.850400012505504926e-02 2.740999998703238204e-03 1.558000228390820502e-03 2.111199998331382555e-02 2.770000223756228716e-03 -1.548999771212872549e-03 1.931299998625726072e-02 -1.845999475373411502e-03 -5.251000116542380372e-03 2.309700001543475364e-02 1.138000095079918020e-03 2.180001062565323677e-04 2.021199999350065113e-02 -1.818000318048873000e-03 5.466999879771760815e-03 1.728700000457424057e-02 2.527000114692454918e-03 -4.299978871601320830e-05 2.018899998609427482e-02 1.469999651536467076e-04 1.883000030582756288e-03 1.948699999730769614e-02 -1.849997460541907650e-04 -1.862999993534593737e-03 2.048000000288208167e-02 -1.570000315762911909e-04 1.871000008018677569e-03 1.991499999899771708e-02 1.970002554669814088e-04 -1.850999964204329317e-03 2.092000000076151001e-02 9.884000132583685774e-03 -2.799992323102003331e-04 2.018299994572143180e-02 -3.610000271930805058e-03 5.238999749467464911e-03 2.251800001469356563e-02 -2.525999890357621958e-03 2.099982908633742906e-05 2.015100001392217816e-02 -3.744999487259632106e-03 -5.480000265449296720e-03 1.780600002614569910e-02 1.414899989139268427e-02 -3.599895005383261175e-05 -2.016900007806447445e-02 -7.242000115247145334e-03 -4.980005753852120940e-04 -2.770199995952776773e-02 4.309998889410846944e-04 -2.999987541716008477e-06 -2.016100000237605952e-02 -7.340000106919743195e-03 4.889994322181373098e-04 -1.266999995997271193e-02 1.994000710075923954e-03 -1.200199988495801937e-02 -3.580499999901807368e-02 2.052999055067069190e-03 1.218400015102465671e-02 -4.249000023502574191e-03 -2.004000301400823709e-03 2.431999827179857389e-03 -2.128099999136747952e-02 -2.042999923767577827e-03 -2.400000173564187985e-03 -1.907299998632563248e-02 -2.735000292272710826e-03 2.373999772752174216e-03 -2.042199998727452573e-02 1.515999888387942716e-03 3.000094499133730337e-06 -2.017900000837109797e-02 -2.743999931292539617e-03 -2.364000227450022574e-03 -1.994299998249217040e-02 3.961999888013657302e-03 7.000279477758508379e-06 -2.019200002187666182e-02 -9.779999039070588068e-04 -2.544000091394788693e-03 -1.744799999206044297e-02 9.779999120996776991e-04 -3.429999466344440910e-04 -2.062400000505580297e-02 9.649998610459584051e-04 3.970000532713609015e-04 -1.973400000572321511e-02 -9.670003155824886129e-04 2.504999904041196445e-03 -2.284999999716448571e-02
2.154003210075694508e-03 -4.039199980900388259e-02 2.812000002845685062e-02 2.104996931551260213e-03 3.862900013261347243e-02 -2.661800005020489510e-02 -2.155000090298649432e-03 1.125999836086837057e-03 -9.309999892294463586e-04 -2.104999910366027981e-03 -1.114000158227784146e-03 9.750000127320441069e-04 1.495600089997094033e-02 -1.292599888292103594e-02 -1.406300006964348280e-02 -3.209300001450617751e-02 2.109975730608455616e-04 2.630001769379590178e-04 1.533299908861580386e-02 1.309800117397458448e-02 1.435199990228077163e-02 1.808000000116488344e-03 -2.999863280471714829e-06 -2.000000997690208133e-05 1.287000006039789061e-03 -1.299999033500864388e-04 -6.870000069742000825e-04 -1.320999694910667422e-03 -4.190000102043157058e-03 -2.137999988522978553e-03 -1.298000307466487492e-03 4.227999904057411044e-03 2.228000002941522405e-03 1.333999990763300603e-03 1.730001015869803952e-04 6.969999924637071496e-04 9.450000035121082324e-04 -4.599992852341313698e-05 5.999994829684888741e-06 -7.270001991961733351e-04 2.551999943897054375e-03 -1.120999998536197865e-03 5.310000003891894452e-04 -4.999959838335425670e-06 1.999997073951121635e-06 -7.489997952977254375e-04 -2.624000055516326809e-03 1.132000006755423671e-03 -2.683008275153012968e-03 1.108139998162181866e-01 1.915599990412027512e-02 -2.828991613181943907e-03 -1.095420001954764688e-01 1.850200012503459834e-02 2.739999998622087707e-03 1.559000228314191610e-03 2.111099998331834871e-02 2.769000223874370191e-03 -1.550999771294496107e-03 1.930699998626477995e-02 -1.843999475174119915e-03 -5.254000116396114091e-03 2.309200001542671341e-02 1.135000095144508532e-03 2.170001060276438207e-04 2.020999999351820800e-02 -1.817000318264724076e-03 5.469999879849388354e-03 1.728900000456572161e-02 2.527000114762565069e-03 -4.399978871701207419e-05 2.018799998609527649e-02 1.469999651370871457e-04 1.883000030579759770e-03 1.948399999730769661e-02 -1.839997460762701927e-04 -1.862999993462958982e-03 2.047600000287656125e-02 -1.580000315983705859e-04 1.871000007939051810e-03 1.991099999900323991e-02 1.970002554669814088e-04 -1.850999964204329317e-03 2.092000000076151001e-02 9.882000132572645729e-03 -2.799992324634585986e-04 2.018099994573247305e-02 -3.610000272201855168e-03 5.241999749459473439e-03 2.251000001469056697e-02 -2.524999890374181495e-03 2.099982915897105656e-05 2.014800001391665873e-02 -3.744999487086292031e-03 -5.482000265445301050e-03 1.781000002614769803e-02 1.414299989142580281e-02 -3.599895050162089580e-05 -2.016300007803135605e-02 -7.240000115684367375e-03 -4.920005752309550241e-04 -2.769899995954479971e-02 4.309998889631641464e-04 -2.999987537720500701e-06 -2.015700000237606246e-02 -7.335000106508472555e-03 4.839994326022817816e-04 -1.266399995999531632e-02 1.989000709963302440e-03 -1.199999988532917707e-02 -3.579799999899247603e-02 2.046999055526370695e-03 1.217800015057187227e-02 -4.248000023463462116e-03 -1.999000301518965086e-03 2.433999827564002193e-03 -2.127499999139707137e-02 -2.036999923653308626e-03 -2.401000173103414338e-03 -1.906599998635775256e-02 -2.734000292320742150e-03 2.374999772832799092e-03 -2.041699998728104676e-02 1.512999888415541986e-03 3.000094277237341778e-06 -2.017400000835454024e-02 -2.742999931183790104e-03 -2.365000227368398329e-03 -1.993699998249669203e-02 3.963999888035736260e-03 7.000279633014531531e-06 -2.018800002188770107e-02 -9.769999048146219781e-04 -2.532000091319158361e-03 -1.744799999207794633e-02 9.769999121107175635e-04 -3.429999467080765974e-04 -2.062200000505028455e-02 9.639998610625179426e-04 3.970000531987272706e-04 -1.973100000571769222e-02 -9.660003147119167449e-04 2.493999904123819431e-03 -2.284299999715901780e-02
2.151003204415041607e-03 -4.031999980926973676e-02 2.808100002840148782e-02 2.101996936767523434e-03 3.856200013241355140e-02 -2.659100005012141055e-02 -2.152000090298649467e-03 1.125999836313727829e-03 -9.309999892460059205e-04 -2.102999910452697969e-03 -1.113000158078521467e-03 9.730000127200056194e-04 1.493000089847102384e-02 -1.290499888487144087e-02 -1.404700006952094155e-02 -3.203700001443605949e-02 2.099975772951411229e-04 2.620001766298460290e-04 1.530399909009364477e-02 1.307700117176133041e-02 1.433199990246182380e-02 1.803000000040858074e-03 -1.999863658623005647e-06 -2.000000995030168247e-05 1.284000006342310126e-03 -1.339999035769772265e-04 -6.870000069536450187e-04 -1.319999695580300041e-03 -4.181000101965529590e-03 -2.135999988537487949e-03 -1.298000307023745728e-03 4.221999904055413581e-03 2.226000002947516043e-03 1.331999990682150841e-03 1.740001014347210024e-04 6.959999924737480300e-04 9.420000035176281580e-04 -4.599992874930503332e-05 6.999994846244454601e-06 -7.270001992828433726e-04 2.552999943895056974e-03 -1.122999998537196897e-03 5.290000004648196539e-04 -5.999959989595937402e-06 1.999997085989709112e-06 -7.469997953843955348e-04 -2.623000055367064130e-03 1.130000006743385075e-03 -2.681008271317948926e-03 1.107629998163654483e-01 1.915199990416017670e-02 -2.828991616548314457e-03 -1.094980001954834609e-01 1.849500012499064733e-02 2.739999998146226603e-03 1.565000228310196037e-03 2.110699998331235644e-02 2.769000223986991908e-03 -1.552999771301487959e-03 1.929999998626677482e-02 -1.844999475061498547e-03 -5.256000116478737501e-03 2.308500001543422817e-02 1.133000095105869470e-03 2.170001058693911780e-04 2.020299999352924772e-02 -1.815000318443583775e-03 5.471999879995655298e-03 1.728400000455268537e-02 2.526000114729445595e-03 -4.399978879863559778e-05 2.018199998610079385e-02 1.459999650984481617e-04 1.883000030497137276e-03 1.947699999731321643e-02 -1.839997460282391962e-04 -1.863999993467953167e-03 2.047100000287755892e-02 -1.580000316425294357e-04 1.871000007931060806e-03 1.990299999900323885e-02 1.970002555150123782e-04 -1.851999964209323501e-03 2.091500000076250768e-02 9.880000132458377493e-03 -2.789992326217112712e-04 2.017399994574251704e-02 -3.609000272467384387e-03 5.244999749528111641e-03 2.250300001468204941e-02 -2.527999890407300367e-03 2.099982892608702183e-05 2.014200001393321934e-02 -3.740999486881480939e-03 -5.485000265146776355e-03 1.780600002612861554e-02 1.413899989144788358e-02 -3.599895080014642302e-05 -2.015900007800927596e-02 -7.236000115872619036e-03 -4.890005749214417939e-04 -2.769199995956987681e-02 4.289998889151331284e-04 -1.999987683986634793e-06 -2.015200000236602035e-02 -7.333000106265022931e-03 4.809994327565389580e-04 -1.266099996000335896e-02 1.977000709586799066e-03 -1.199399988622275662e-02 -3.578399999893223243e-02 2.034999055801291982e-03 1.217400014965931698e-02 -4.253000023393228163e-03 -1.986000301852957912e-03 2.438999828555186555e-03 -2.126699999147382836e-02 -2.026999923367347241e-03 -2.405000172350108597e-03 -1.906899998640895419e-02 -2.733000292147402376e-03 2.372999772912424803e-03 -2.041299998728456772e-02 1.507999888443141206e-03 3.000093904080438265e-06 -2.016900000832693926e-02 -2.739999931167230035e-03 -2.365000227138511039e-03 -1.993399998251325217e-02 3.962999888127925405e-03 6.000279560380907684e-06 -2.018500002188118245e-02 -9.749999067550570468e-04 -2.507000091176888202e-03 -1.745699999211395778e-02 9.739999119224656242e-04 -3.399999469279752764e-04 -2.061500000503672242e-02 9.609998612468976164e-04 3.950000529778297572e-04 -1.972500000569913509e-02 -9.620003124137620340e-04 2.464999904445319256e-03 -2.282399999715212929e-02
2.145003195609389724e-03 -4.020699980977046617e-02 2.803400002832173721e-02 2.097996944846120156e-03 3.846000013217696495e-02 -2.652500004999744712e-02 -2.139000089546218807e-03 1.116999837309906552e-03 -9.179999893087740798e-04 -2.099999910452698005e-03 -1.113000157851630695e-03 9.730000127034460575e-04 1.488500089577922750e-02 -1.286699888824183874e-02 -1.401400006931050567e-02 -3.194500001366320369e-02 1.999975842561214727e-04 2.650001761320080573e-04 1.525399909274292864e-02 1.304000116795284679e-02 1.430499990277477561e-02 1.798000000634860556e-03 -9.999864038772025593e-06 -2.200000991471138869e-05 1.284000006482530860e-03 -1.359999035789749718e-04 -6.890000069516473164e-04 -1.318999696323915364e-03 -4.170000101873917384e-03 -2.119999988553995622e-03 -1.297000306592043829e-03 4.215999904127048191e-03 2.222000002947989526e-03 1.327999990768820564e-03 1.730001011341977270e-04 6.979999924968262976e-04 9.370000030748862731e-04 -3.999992912545858551e-05 8.999994867850473097e-06 -7.230001985800916164e-04 2.543999944201573177e-03 -1.118999998550286156e-03 5.310000000756287444e-04 -9.999598403331899032e-07 -2.930044383989654711e-12 -7.449997960004772161e-04 -2.615000055217801388e-03 1.128000006724354460e-03 -2.679008264673526235e-03 1.106749998165147131e-01 1.914999990423704029e-02 -2.827991623150225616e-03 -1.094110001954118061e-01 1.849100012489822767e-02 2.741999997923208216e-03 1.567000228448471111e-03 2.109399998329931913e-02 2.768000224466724783e-03 -1.559999771386108049e-03 1.929099998627928705e-02 -1.844999475133256685e-03 -5.256000116491722773e-03 2.307200001543422557e-02 1.135000094904930427e-03 2.190001060116617806e-04 2.019399999351621094e-02 -1.817000318801303537e-03 5.475999879834405476e-03 1.727400000455973222e-02 2.526000114349646972e-03 -3.999978881261988576e-05 2.016799998609679692e-02 1.479999649676193502e-04 1.884000030638409168e-03 1.946699999730118133e-02 -1.829997462827292858e-04 -1.860999993397317431e-03 2.046600000286904336e-02 -1.600000321404698505e-04 1.877000007771809217e-03 1.989499999900828583e-02 1.970002552975136162e-04 -1.849999964221310175e-03 2.090300000076051115e-02 9.869000132711219786e-03 -2.829992334626339691e-04 2.016499994580722710e-02 -3.600000272317771966e-03 5.241999750194800169e-03 2.248900001463536788e-02 -2.524999890132378823e-03 1.699982914798342412e-05 2.013700001392065148e-02 -3.741999486682189100e-03 -5.488000265227400629e-03 1.780100002613713497e-02 1.412899989153620049e-02 -3.599895154046696795e-05 -2.014300007795407840e-02 -7.234000115896923114e-03 -4.870005747472071493e-04 -2.766899995958291281e-02 4.289998894241132477e-04 -7.999987673997847296e-06 -2.014200000236002555e-02 -7.327000105377891488e-03 4.699994332203093141e-04 -1.265099996002549097e-02 1.960000708785760489e-03 -1.198099988747550887e-02 -3.575099999885137519e-02 2.013999056627705821e-03 1.216300014807008070e-02 -4.254000023266323732e-03 -1.969000302233333242e-03 2.445999829867870519e-03 -2.123999999157465471e-02 -2.002999922653556086e-03 -2.414000170528989280e-03 -1.906299998653244315e-02 -2.723000292086683993e-03 2.372999773679715114e-03 -2.040199998733976602e-02 1.499999888568450280e-03 2.000093308028271836e-06 -2.016000000828178235e-02 -2.737999931434984772e-03 -2.360000226967273219e-03 -1.991399998252928877e-02 3.962999887784542097e-03 1.200027958035842723e-05 -2.016500002188717153e-02 -9.719999093430453912e-04 -2.473000090952993772e-03 -1.745999999216447940e-02 9.739999117562932098e-04 -3.369999469169875734e-04 -2.060400000503971943e-02 9.569998614864758417e-04 3.930000526912907411e-04 -1.970900000567506194e-02 -9.600003099091482814e-04 2.433999904625546839e-03 -2.279499999713220301e-02
2.174003186015963356e-03 -4.008299980761614173e-02 2.799500002803780030e-02 2.099996955898023737e-03 3.832000013241212977e-02 -2.644100004986864316e-02 -2.154000087148129957e-03 1.084999836171457498e-03 -9.219999891940122445e-04 -2.084999910429547864e-03 -1.109000156658242978e-03 1.032000012616652663e-03 1.482200089237364210e-02 -1.281999889297957482e-02 -1.398700006900970016e-02 -3.182100001586257720e-02 2.319975936742283838e-04 3.050001754155818950e-04 1.520399909416334482e-02 1.302100116416833597e-02 1.430199990306974672e-02 1.823999998918515155e-03 1.700013798654833485e-05 3.699998991480269952e-05 1.250000007332094376e-03 -1.429999060924688412e-04 -6.310000067569801170e-04 -1.313999697800106049e-03 -4.148000101461803146e-03 -2.085999988603570374e-03 -1.285000301748411749e-03 4.153999905062579802e-03 2.250000002943681153e-03 1.330999989728204368e-03 1.880001013780693397e-04 7.149999924652835834e-04 9.120000055055176415e-04 -6.899993097326323694e-05 5.199999503481427709e-05 -7.400001988075589465e-04 2.549999942956812735e-03 -1.077999998462441907e-03 5.349999982118948481e-04 2.700004050813609345e-05 4.599999701990765120e-05 -7.199997985757782340e-04 -2.580000053314059159e-03 1.141000006551397316e-03 -2.685008254698076444e-03 1.105449998160869113e-01 1.917599990440000887e-02 -2.826991632687382572e-03 -1.092830001953102176e-01 1.851700012476484650e-02 2.747999999214442626e-03 1.550000228903251551e-03 2.109499998328317680e-02 2.770000224933193492e-03 -1.564999771218865540e-03 1.930699998627324193e-02 -1.844999473685242017e-03 -5.275000116489725159e-03 2.307400001545320892e-02 1.137000095858300020e-03 2.080001061848976132e-04 2.021599999351616009e-02 -1.811000318501006711e-03 5.473999880315156934e-03 1.730100000452861053e-02 2.530000114406493524e-03 -3.899978848612580776e-05 2.019199998607372482e-02 1.409999654269208035e-04 1.878000030109996206e-03 1.946799999734580983e-02 -1.589997457516698087e-04 -1.866999991568206712e-03 2.048000000274256133e-02 -1.550000311942677635e-04 1.865000008156952448e-03 1.990199999899267339e-02 1.880002557954540347e-04 -1.855999964893991416e-03 2.091100000081617949e-02 9.854000132681395296e-03 -2.809992345751125735e-04 2.018699994588802824e-02 -3.573000274384092491e-03 5.270999752259790221e-03 2.251200001445736662e-02 -2.527999889647702687e-03 1.299982895405559779e-05 2.017000001394120973e-02 -3.735999486900264729e-03 -5.483000264744651575e-03 1.783000002609901741e-02 1.411699989132587062e-02 -3.299895244503343715e-05 -2.014000007789083779e-02 -7.233000115823516422e-03 -4.860005746446071761e-04 -2.764199995958943265e-02 4.429998903128922762e-04 -1.799998659120116926e-05 -2.011800000242731576e-02 -7.327000103454015499e-03 4.449994332263026639e-04 -1.264499996000051883e-02 1.955000707975330845e-03 -1.196699988780871096e-02 -3.570599999883776465e-02 1.978999057893564891e-03 1.214400014539205805e-02 -4.285000023054149482e-03 -1.937000303499192711e-03 2.464999832319003919e-03 -2.120899999177026929e-02 -2.002999923096297850e-03 -2.408000170526991383e-03 -1.906099998653843636e-02 -2.727000291721796282e-03 2.369999773402165898e-03 -2.037699998731469161e-02 1.490999888966456450e-03 -9.999073416788543448e-07 -2.012900000822910596e-02 -2.729999929551972168e-03 -2.383000226336260633e-03 -1.988799998255047149e-02 3.961999888347072021e-03 5.000279510721452486e-06 -2.015900002187466164e-02 -9.709999142258930738e-04 -2.408000090871370309e-03 -1.745399999223492746e-02 9.829999109701669478e-04 -3.249999462143400315e-04 -2.058200000510138419e-02 9.469998598391698259e-04 4.150000519379846791e-04 -1.970600000564183898e-02 -9.550003075800988801e-04 2.406999905055639752e-03 -2.274299999713283449e-02
