2.745060000000000056e+00 2.393969999999999931e+00 7.200630000000000308e+00 5.466999999999999638e-01 2.518959999999999866e+00 3.665599999999999969e+00 2.412150000000000016e+00 7.125299999999999967e-01 3.666150000000000020e+00 4.574510000000000076e+00 2.518949999999999800e+00 3.665599999999999969e+00 6.772859999999999658e+00 2.393969999999999931e+00 7.200630000000000308e+00 2.706519999999999815e+00 4.327939999999999898e+00 3.666170000000000151e+00 4.906970000000000276e+00 4.200859999999999594e+00 7.200230000000000352e+00 4.612580000000000346e+00 5.854700000000000459e-01 7.200230000000000352e+00 1.484180000000000055e+00 3.216990000000000016e+00 1.457459000000000060e+01 3.349639999999999951e+00 1.410560000000000036e+00 1.457516000000000034e+01 5.512010000000000076e+00 3.216990000000000016e+00 1.457459000000000060e+01 3.644000000000000128e+00 5.025949999999999918e+00 1.457516000000000034e+01 3.682539999999999925e+00 3.092010000000000147e+00 1.810961999999999961e+01 7.710359999999999658e+00 3.092010000000000147e+00 1.810961999999999961e+01 5.844450000000000145e+00 4.898889999999999745e+00 1.810923999999999978e+01 5.550089999999999968e+00 1.283500000000000085e+00 1.810923999999999978e+01 4.620049999999999990e+00 3.790029999999999788e+00 2.901864000000000132e+01 2.421689999999999898e+00 3.915020000000000167e+00 2.548361999999999838e+01 4.287130000000000329e+00 2.108589999999999964e+00 2.548419000000000167e+01 6.449489999999999945e+00 3.915010000000000101e+00 2.548361999999999838e+01 8.647859999999999658e+00 3.790039999999999853e+00 2.901863000000000170e+01 4.581500000000000128e+00 5.723980000000000068e+00 2.548419000000000167e+01 6.781950000000000145e+00 5.596910000000000274e+00 2.901823999999999870e+01 6.487580000000000346e+00 1.981519999999999948e+00 2.901823999999999870e+01 7.361620000000000275e+00 9.624779999999999447e+00 7.200630000000000308e+00 8.410499999999999643e-01 6.134350000000000414e+00 3.665589999999999904e+00 4.868870000000000253e+00 6.134360000000000035e+00 3.665599999999999969e+00 3.333790000000000031e+00 9.624760000000000204e+00 7.200630000000000308e+00 1.135440000000000005e+00 9.749769999999999825e+00 3.665599999999999969e+00 3.000879999999999992e+00 7.943329999999999558e+00 3.666160000000000085e+00 5.201329999999999565e+00 7.816279999999999895e+00 7.200219999999999843e+00 5.163240000000000052e+00 9.749760000000000204e+00 3.665589999999999904e+00 3.039419999999999789e+00 6.009369999999999656e+00 7.200610000000000177e+00 7.067230000000000345e+00 6.009380000000000166e+00 7.200630000000000308e+00 1.778559999999999919e+00 6.832390000000000185e+00 1.457460000000000022e+01 5.806379999999999875e+00 6.832379999999999676e+00 1.457460999999999984e+01 2.072940000000000005e+00 1.044777000000000022e+01 1.457460000000000022e+01 3.938379999999999992e+00 8.641360000000000596e+00 1.457516999999999996e+01 6.100740000000000052e+00 1.044777000000000022e+01 1.457460000000000022e+01 8.299110000000000653e+00 1.032281000000000049e+01 1.810963999999999885e+01 4.271279999999999966e+00 1.032280000000000086e+01 1.810962999999999923e+01 6.138829999999999565e+00 8.514300000000000423e+00 1.810923999999999978e+01 3.976910000000000167e+00 6.707410000000000316e+00 1.810963999999999885e+01 8.004730000000000345e+00 6.707390000000000185e+00 1.810962999999999923e+01 9.236589999999999634e+00 1.102083000000000013e+01 2.901864000000000132e+01 2.716060000000000141e+00 7.530409999999999826e+00 2.548360999999999876e+01 6.743859999999999744e+00 7.530409999999999826e+00 2.548359999999999914e+01 5.208779999999999966e+00 1.102082000000000050e+01 2.901863000000000170e+01 3.010429999999999939e+00 1.114581000000000088e+01 2.548359999999999914e+01 4.875869999999999926e+00 9.339389999999999858e+00 2.548416999999999888e+01 7.076310000000000322e+00 9.212320000000000064e+00 2.901824999999999832e+01 7.038240000000000052e+00 1.114582000000000050e+01 2.548360999999999876e+01 4.914399999999999658e+00 7.405420000000000336e+00 2.901864000000000132e+01 8.942220000000000724e+00 7.405429999999999957e+00 2.901864000000000132e+01 6.439949999999999619e+00 7.125299999999999967e-01 3.666170000000000151e+00 1.080067000000000021e+01 2.393979999999999997e+00 7.200610000000000177e+00 8.602309999999999235e+00 2.518959999999999866e+00 3.665599999999999969e+00 1.046777999999999942e+01 7.125299999999999967e-01 3.666160000000000085e+00 1.296259000000000050e+01 4.200859999999999594e+00 7.200239999999999974e+00 6.734340000000000437e+00 4.327919999999999767e+00 3.666170000000000151e+00 8.934779999999999944e+00 4.200859999999999594e+00 7.200230000000000352e+00 1.076214000000000048e+01 4.327930000000000277e+00 3.666160000000000085e+00 8.640409999999999258e+00 5.854700000000000459e-01 7.200230000000000352e+00 1.266820000000000057e+01 5.854700000000000459e-01 7.200230000000000352e+00 7.377439999999999998e+00 1.410549999999999971e+00 1.457517999999999958e+01 9.539820000000000633e+00 3.216990000000000016e+00 1.457459000000000060e+01 1.140525000000000055e+01 1.410549999999999971e+00 1.457516000000000034e+01 7.671809999999999796e+00 5.025960000000000427e+00 1.457516999999999996e+01 1.169963000000000086e+01 5.025949999999999918e+00 1.457517999999999958e+01 1.173817000000000021e+01 3.092000000000000082e+00 1.810963999999999885e+01 1.390008000000000088e+01 4.898889999999999745e+00 1.810923000000000016e+01 9.872270000000000323e+00 4.898900000000000254e+00 1.810923999999999978e+01 9.577899999999999636e+00 1.283500000000000085e+00 1.810923000000000016e+01 1.360570000000000057e+01 1.283479999999999954e+00 1.810923000000000016e+01 8.314939999999999998e+00 2.108589999999999964e+00 2.548416999999999888e+01 1.267566000000000059e+01 3.790020000000000167e+00 2.901863000000000170e+01 1.047729999999999961e+01 3.915010000000000101e+00 2.548360999999999876e+01 1.234276000000000018e+01 2.108589999999999964e+00 2.548416999999999888e+01 8.609310000000000684e+00 5.723980000000000068e+00 2.548416999999999888e+01 1.080976000000000070e+01 5.596910000000000274e+00 2.901823999999999870e+01 1.483756999999999948e+01 5.596919999999999895e+00 2.901823999999999870e+01 1.263711999999999946e+01 5.723989999999999689e+00 2.548417999999999850e+01 1.051538000000000039e+01 1.981510000000000105e+00 2.901823999999999870e+01 1.454321000000000019e+01 1.981530000000000014e+00 2.901823999999999870e+01 1.325694999999999979e+01 7.816259999999999764e+00 7.200219999999999843e+00 8.896679999999999922e+00 6.134369999999999656e+00 3.665589999999999904e+00 7.028710000000000235e+00 7.943319999999999936e+00 3.666170000000000151e+00 9.229139999999999233e+00 7.816270000000000273e+00 7.200219999999999843e+00 1.138943000000000083e+01 9.624769999999999825e+00 7.200630000000000308e+00 9.191060000000000230e+00 9.749760000000000204e+00 3.665599999999999969e+00 1.105650999999999939e+01 7.943319999999999936e+00 3.666160000000000085e+00 1.109505000000000052e+01 6.009369999999999656e+00 7.200630000000000308e+00 9.834189999999999543e+00 6.832390000000000185e+00 1.457460999999999984e+01 7.966179999999999595e+00 8.641360000000000596e+00 1.457516999999999996e+01 1.012853999999999921e+01 1.044777000000000022e+01 1.457460000000000022e+01 1.199399999999999977e+01 8.641360000000000596e+00 1.457516999999999996e+01 1.419444999999999979e+01 8.514300000000000423e+00 1.810924999999999940e+01 1.016661999999999999e+01 8.514300000000000423e+00 1.810923999999999978e+01 1.232690999999999981e+01 1.032280000000000086e+01 1.810961999999999961e+01 1.203255000000000052e+01 6.707410000000000316e+00 1.810961999999999961e+01 1.513193000000000055e+01 9.212329999999999686e+00 2.901823999999999870e+01 1.077166000000000068e+01 7.530420000000000336e+00 2.548359999999999914e+01 8.903669999999999973e+00 9.339380000000000237e+00 2.548416999999999888e+01 1.110412999999999961e+01 9.212329999999999686e+00 2.901823999999999870e+01 1.326440000000000019e+01 1.102082000000000050e+01 2.901863000000000170e+01 1.106603999999999921e+01 1.114581000000000088e+01 2.548361999999999838e+01 1.293149999999999977e+01 9.339380000000000237e+00 2.548416999999999888e+01 1.297002999999999950e+01 7.405429999999999957e+00 2.901863000000000170e+01 4.887349999999999639e+00 5.168149999999999800e+00 5.433130000000000237e+00 5.651800000000000157e-01 1.552740000000000009e+00 5.433119999999999727e+00 2.082770000000000010e+00 1.725309999999999899e+00 2.175380000000000091e+00 6.110590000000000188e+00 1.725330000000000030e+00 2.175370000000000026e+00 2.726290000000000102e+00 3.360469999999999846e+00 5.433200000000000252e+00 4.592979999999999841e+00 1.552750000000000075e+00 5.433119999999999727e+00 4.243909999999999627e+00 3.532929999999999904e+00 2.175489999999999924e+00 8.595399999999999707e-01 5.168140000000000178e+00 5.433130000000000237e+00 6.404950000000000365e+00 5.340720000000000134e+00 2.175370000000000026e+00 2.377139999999999809e+00 5.340700000000000003e+00 2.175359999999999960e+00 1.208709999999999951e+00 3.187910000000000021e+00 8.690929999999999822e+00 3.075359999999999872e+00 1.380279999999999951e+00 8.690910000000000579e+00 5.236509999999999998e+00 3.187910000000000021e+00 8.690929999999999822e+00 3.369740000000000180e+00 4.995680000000000121e+00 8.690920000000000201e+00 1.502660000000000107e+00 2.250779999999999781e+00 1.634212000000000131e+01 3.020280000000000076e+00 2.423340000000000050e+00 1.308439000000000085e+01 7.048090000000000188e+00 2.423350000000000115e+00 1.308437999999999946e+01 3.663769999999999971e+00 4.058489999999999931e+00 1.634221000000000146e+01 5.530470000000000219e+00 2.250779999999999781e+00 1.634213000000000093e+01 5.824840000000000018e+00 5.866170000000000329e+00 1.634213000000000093e+01 1.797029999999999905e+00 5.866159999999999819e+00 1.634214000000000055e+01 5.181400000000000006e+00 4.230949999999999989e+00 1.308449000000000062e+01 3.314649999999999874e+00 6.038750000000000284e+00 1.308439000000000085e+01 7.342459999999999987e+00 6.038730000000000153e+00 1.308437999999999946e+01 6.118890000000000384e+00 4.928980000000000139e+00 2.399350000000000094e+01 2.146189999999999820e+00 3.885940000000000172e+00 1.959993000000000052e+01 4.012850000000000250e+00 2.078310000000000102e+00 1.959992000000000090e+01 6.174000000000000377e+00 3.885930000000000106e+00 1.959994000000000014e+01 4.307220000000000049e+00 5.693719999999999892e+00 1.959993000000000052e+01 3.957780000000000076e+00 3.121379999999999821e+00 2.399339000000000155e+01 7.985570000000000057e+00 3.121370000000000200e+00 2.399340000000000117e+01 8.279939999999999856e+00 6.736760000000000304e+00 2.399340000000000117e+01 4.252130000000000187e+00 6.736760000000000304e+00 2.399339000000000155e+01 6.762330000000000396e+00 6.564199999999999591e+00 2.725112999999999985e+01 2.440160000000000107e+00 2.948789999999999800e+00 2.725113999999999947e+01 3.083699999999999886e+00 4.583960000000000257e+00 3.050892999999999944e+01 4.601270000000000415e+00 4.756520000000000081e+00 2.725122999999999962e+01 4.950350000000000250e+00 2.776349999999999874e+00 3.050893999999999906e+01 6.467970000000000219e+00 2.948799999999999866e+00 2.725112999999999985e+01 7.111500000000000377e+00 4.583969999999999878e+00 3.050893999999999906e+01 2.734529999999999905e+00 6.564189999999999969e+00 2.725113999999999947e+01 5.244729999999999670e+00 6.391729999999999912e+00 3.050892999999999944e+01 5.181720000000000326e+00 8.783530000000000726e+00 5.433130000000000237e+00 4.538289999999999935e+00 7.148340000000000138e+00 2.175479999999999858e+00 3.315030000000000143e+00 1.059126999999999974e+01 5.433220000000000383e+00 3.020659999999999901e+00 6.975869999999999571e+00 5.433209999999999873e+00 1.153909999999999991e+00 8.783540000000000347e+00 5.433119999999999727e+00 2.671520000000000117e+00 8.956110000000000682e+00 2.175370000000000026e+00 6.699329999999999785e+00 8.956120000000000303e+00 2.175380000000000091e+00 4.832650000000000112e+00 1.076374000000000031e+01 2.175489999999999924e+00 1.503069999999999906e+00 6.803320000000000256e+00 8.690920000000000201e+00 5.530890000000000306e+00 6.803309999999999746e+00 8.690929999999999822e+00 1.797449999999999992e+00 1.041869999999999941e+01 8.690920000000000201e+00 3.664099999999999913e+00 8.611069999999999780e+00 8.690920000000000201e+00 5.825249999999999595e+00 1.041869999999999941e+01 8.690920000000000201e+00 5.475789999999999935e+00 7.846350000000000158e+00 1.308449000000000062e+01 3.958140000000000214e+00 7.673899999999999721e+00 1.634221000000000146e+01 2.091400000000000148e+00 9.481569999999999609e+00 1.634213000000000093e+01 3.609010000000000051e+00 9.654149999999999565e+00 1.308436999999999983e+01 7.636829999999999785e+00 9.654130000000000322e+00 1.308437999999999946e+01 4.252510000000000012e+00 1.128930000000000078e+01 1.634221000000000146e+01 6.119220000000000326e+00 9.481569999999999609e+00 1.634214000000000055e+01 5.770150000000000112e+00 1.146175999999999995e+01 1.308447999999999922e+01 8.574310000000000542e+00 1.035215999999999958e+01 2.399339000000000155e+01 6.413269999999999804e+00 8.544389999999999930e+00 2.399351000000000056e+01 2.440560000000000063e+00 7.501339999999999897e+00 1.959994000000000014e+01 6.468379999999999797e+00 7.501339999999999897e+00 1.959993000000000052e+01 2.734939999999999927e+00 1.111673000000000044e+01 1.959993000000000052e+01 4.601600000000000357e+00 9.309110000000000440e+00 1.959993000000000052e+01 6.762739999999999974e+00 1.111673000000000044e+01 1.959993000000000052e+01 4.546499999999999986e+00 1.035215999999999958e+01 2.399339000000000155e+01 6.707629999999999981e+00 1.215978999999999921e+01 2.399349000000000132e+01 7.700249999999999595e+00 1.181475999999999971e+01 3.050892999999999944e+01 7.056709999999999816e+00 1.017958999999999925e+01 2.725112999999999985e+01 3.378060000000000063e+00 8.199350000000000804e+00 3.050893999999999906e+01 4.895640000000000214e+00 8.371930000000000760e+00 2.725122000000000000e+01 7.405870000000000175e+00 8.199360000000000426e+00 3.050893999999999906e+01 3.028890000000000082e+00 1.017958999999999925e+01 2.725112999999999985e+01 3.672429999999999861e+00 1.181476999999999933e+01 3.050892999999999944e+01 5.190010000000000012e+00 1.198732000000000042e+01 2.725122999999999962e+01 5.539089999999999847e+00 1.000713999999999970e+01 3.050892999999999944e+01 1.229953000000000074e+01 3.532939999999999969e+00 2.175479999999999858e+00 8.915169999999999817e+00 5.168149999999999800e+00 5.433119999999999727e+00 8.271729999999999805e+00 3.532939999999999969e+00 2.175479999999999858e+00 6.754100000000000215e+00 3.360469999999999846e+00 5.433209999999999873e+00 8.620799999999999130e+00 1.552740000000000009e+00 5.433130000000000237e+00 1.013841000000000037e+01 1.725309999999999899e+00 2.175370000000000026e+00 1.078190000000000026e+01 3.360469999999999846e+00 5.433209999999999873e+00 1.043277999999999928e+01 5.340709999999999624e+00 2.175370000000000026e+00 7.103180000000000049e+00 1.380290000000000017e+00 8.690920000000000201e+00 9.264319999999999666e+00 3.187910000000000021e+00 8.690920000000000201e+00 1.113100000000000023e+01 1.380290000000000017e+00 8.690920000000000201e+00 7.397540000000000227e+00 4.995680000000000121e+00 8.690929999999999822e+00 1.142536999999999914e+01 4.995689999999999742e+00 8.690929999999999822e+00 9.209229999999999805e+00 4.230959999999999610e+00 1.308447999999999922e+01 7.691589999999999705e+00 4.058489999999999931e+00 1.634221000000000146e+01 9.558289999999999509e+00 2.250770000000000159e+00 1.634213000000000093e+01 1.107588999999999935e+01 2.423350000000000115e+00 1.308437999999999946e+01 1.323703000000000074e+01 4.230959999999999610e+00 1.308450000000000024e+01 1.171940000000000026e+01 4.058510000000000062e+00 1.634222000000000108e+01 9.852650000000000574e+00 5.866179999999999950e+00 1.634214000000000055e+01 1.137027999999999928e+01 6.038739999999999775e+00 1.308439000000000085e+01 1.417450999999999972e+01 4.928989999999999760e+00 2.399350000000000094e+01 1.201338999999999935e+01 3.121370000000000200e+00 2.399339000000000155e+01 8.040660000000000807e+00 2.078320000000000167e+00 1.959993000000000052e+01 1.020182999999999929e+01 3.885930000000000106e+00 1.959992000000000090e+01 1.206847999999999921e+01 2.078320000000000167e+00 1.959993000000000052e+01 8.335029999999999717e+00 5.693710000000000271e+00 1.959992000000000090e+01 1.236284999999999989e+01 5.693710000000000271e+00 1.959993000000000052e+01 1.014672000000000018e+01 4.928989999999999760e+00 2.399350000000000094e+01 1.230775000000000041e+01 6.736760000000000304e+00 2.399339000000000155e+01 1.330034000000000027e+01 6.391750000000000043e+00 3.050892999999999944e+01 1.079015000000000057e+01 6.564189999999999969e+00 2.725113999999999947e+01 8.629089999999999705e+00 4.756529999999999703e+00 2.725122999999999962e+01 8.978160000000000807e+00 2.776330000000000187e+00 3.050893999999999906e+01 1.049577999999999989e+01 2.948789999999999800e+00 2.725113999999999947e+01 1.113931000000000004e+01 4.583969999999999878e+00 3.050892999999999944e+01 1.265689000000000064e+01 4.756520000000000081e+00 2.725122999999999962e+01 1.300595999999999997e+01 2.776339999999999808e+00 3.050892999999999944e+01 9.272539999999999338e+00 6.391740000000000421e+00 3.050892999999999944e+01 1.259389999999999965e+01 7.148340000000000138e+00 2.175479999999999858e+00 1.137064999999999948e+01 1.059126000000000012e+01 5.433200000000000252e+00 7.048470000000000013e+00 6.975859999999999950e+00 5.433209999999999873e+00 1.072714000000000034e+01 8.956120000000000303e+00 2.175370000000000026e+00 1.107628000000000057e+01 6.975859999999999950e+00 5.433220000000000383e+00 8.566090000000000870e+00 7.148329999999999629e+00 2.175479999999999858e+00 7.342839999999999812e+00 1.059126000000000012e+01 5.433209999999999873e+00 9.209530000000000882e+00 8.783549999999999969e+00 5.433130000000000237e+00 1.288827999999999996e+01 1.076373000000000069e+01 2.175489999999999924e+00 8.860459999999999781e+00 1.076373000000000069e+01 2.175479999999999858e+00 9.558699999999999974e+00 6.803309999999999746e+00 8.690920000000000201e+00 7.691919999999999646e+00 8.611090000000000799e+00 8.690920000000000201e+00 9.853059999999999263e+00 1.041869999999999941e+01 8.690920000000000201e+00 1.171972000000000058e+01 8.611069999999999780e+00 8.690920000000000201e+00 1.230813999999999986e+01 1.128928999999999938e+01 1.634222000000000108e+01 7.985970000000000013e+00 7.673890000000000100e+00 1.634223000000000070e+01 1.353139999999999965e+01 7.846350000000000158e+00 1.308450000000000024e+01 1.201376999999999917e+01 7.673890000000000100e+00 1.634221000000000146e+01 9.503600000000000492e+00 7.846359999999999779e+00 1.308450000000000024e+01 8.280319999999999681e+00 1.128928999999999938e+01 1.634222000000000108e+01 1.014701999999999948e+01 9.481569999999999609e+00 1.634214000000000055e+01 1.166464000000000034e+01 9.654130000000000322e+00 1.308436999999999983e+01 9.797959999999999781e+00 1.146175000000000033e+01 1.308450000000000024e+01 1.382577000000000034e+01 1.146175999999999995e+01 1.308449000000000062e+01 1.446889999999999965e+01 8.544389999999999930e+00 2.399349000000000132e+01 1.049619000000000035e+01 7.501339999999999897e+00 1.959994000000000014e+01 8.629400000000000404e+00 9.309110000000000440e+00 1.959993000000000052e+01 1.079057000000000066e+01 1.111673000000000044e+01 1.959992000000000090e+01 1.265720999999999918e+01 9.309100000000000819e+00 1.959992000000000090e+01 1.044107999999999947e+01 8.544389999999999930e+00 2.399350000000000094e+01 1.260213000000000072e+01 1.035215999999999958e+01 2.399337999999999838e+01 1.476324999999999932e+01 1.215977999999999959e+01 2.399349000000000132e+01 1.073545000000000016e+01 1.215978999999999921e+01 2.399351000000000056e+01 1.359472000000000058e+01 1.000713000000000008e+01 3.050892999999999944e+01 8.923450000000000770e+00 8.371930000000000760e+00 2.725122000000000000e+01 1.143369000000000035e+01 8.199360000000000426e+00 3.050893999999999906e+01 1.295124999999999993e+01 8.371909999999999741e+00 2.725122000000000000e+01 9.217829999999999302e+00 1.198732000000000042e+01 2.725122000000000000e+01 9.566910000000000025e+00 1.000713000000000008e+01 3.050892999999999944e+01 1.108451999999999948e+01 1.017958999999999925e+01 2.725112999999999985e+01 1.172804999999999964e+01 1.181475000000000009e+01 3.050893999999999906e+01 1.324563000000000024e+01 1.198732000000000042e+01 2.725122999999999962e+01