-2.362983348490000026e+03
-2.362995994819999851e+03
-2.363000328350000018e+03
-2.362995943129999887e+03
-2.362982669089999945e+03
-2.362960877819999951e+03
-2.362931299620000118e+03
-2.362895036230000187e+03
-2.362853588330000093e+03
-2.362808667039999818e+03
