3.417930000000000135e-01 2.497369999999999868e-01 -1.342877000000000098e+00 -3.434459999999999735e-01 -2.475120000000000098e-01 1.340934000000000070e+00 -3.351930000000000187e-01 -2.566280000000000228e-01 1.347625999999999991e+00 -3.434800000000000075e-01 -2.480159999999999865e-01 1.341275999999999913e+00 3.419690000000000230e-01 2.496539999999999870e-01 -1.342870000000000008e+00 -3.351669999999999927e-01 -2.562280000000000113e-01 1.347128000000000103e+00 3.363079999999999958e-01 2.545680000000000165e-01 -1.346302000000000110e+00 3.361859999999999848e-01 2.547139999999999960e-01 -1.346316000000000068e+00 -3.430159999999999876e-01 -2.486299999999999899e-01 1.341588999999999920e+00 -3.354960000000000164e-01 -2.559839999999999893e-01 1.347765000000000102e+00 -3.431679999999999731e-01 -2.484040000000000137e-01 1.341480000000000006e+00 -3.354929999999999857e-01 -2.558779999999999943e-01 1.347620000000000040e+00 3.421460000000000057e-01 2.492659999999999876e-01 -1.342357999999999940e+00 3.416270000000000140e-01 2.493660000000000043e-01 -1.342009999999999925e+00 3.362720000000000153e-01 2.551840000000000219e-01 -1.346618000000000093e+00 3.363169999999999771e-01 2.551979999999999804e-01 -1.346672000000000091e+00 3.417959999999999887e-01 2.498920000000000030e-01 -1.343191000000000024e+00 -3.434289999999999843e-01 -2.477040000000000075e-01 1.341191999999999940e+00 -3.353110000000000257e-01 -2.560850000000000071e-01 1.347852999999999968e+00 -3.437950000000000172e-01 -2.475680000000000103e-01 1.341603000000000101e+00 3.415329999999999755e-01 2.496849999999999903e-01 -1.343140000000000001e+00 -3.352740000000000165e-01 -2.560839999999999783e-01 1.347660999999999998e+00 3.366540000000000088e-01 2.542139999999999955e-01 -1.347350000000000048e+00 3.365560000000000218e-01 2.542429999999999968e-01 -1.347239999999999993e+00 3.420259999999999967e-01 2.495159999999999878e-01 -1.342675000000000063e+00 -3.435210000000000208e-01 -2.475829999999999975e-01 1.340770999999999935e+00 -3.434280000000000110e-01 -2.479399999999999937e-01 1.341109000000000107e+00 3.416939999999999977e-01 2.496059999999999945e-01 -1.342621000000000064e+00 -3.434159999999999990e-01 -2.477580000000000060e-01 1.341077000000000075e+00 -3.351790000000000047e-01 -2.564859999999999918e-01 1.347237999999999936e+00 3.362990000000000146e-01 2.543639999999999790e-01 -1.345868999999999982e+00 -3.434409999999999963e-01 -2.481540000000000135e-01 1.341423999999999950e+00 3.416959999999999997e-01 2.494770000000000043e-01 -1.342653000000000096e+00 3.420739999999999892e-01 2.491919999999999968e-01 -1.342473000000000027e+00 -3.431279999999999886e-01 -2.483360000000000012e-01 1.341379000000000099e+00 -3.433720000000000105e-01 -2.480050000000000032e-01 1.340929999999999955e+00 -3.432089999999999863e-01 -2.481669999999999987e-01 1.341040999999999928e+00 -3.354900000000000104e-01 -2.557969999999999966e-01 1.347523999999999944e+00 -3.433329999999999993e-01 -2.480850000000000000e-01 1.340951999999999922e+00 3.416350000000000220e-01 2.494460000000000011e-01 -1.342076000000000047e+00 3.421930000000000249e-01 2.494109999999999938e-01 -1.342497000000000051e+00 3.363900000000000223e-01 2.551629999999999732e-01 -1.346538999999999930e+00 3.421460000000000057e-01 2.494460000000000011e-01 -1.342424999999999979e+00 3.415309999999999735e-01 2.496109999999999995e-01 -1.342265999999999959e+00 3.415130000000000110e-01 2.497929999999999873e-01 -1.343569999999999931e+00 -3.435659999999999825e-01 -2.476510000000000100e-01 1.341104999999999992e+00 -3.437109999999999888e-01 -2.478740000000000110e-01 1.341900000000000093e+00 3.417180000000000217e-01 2.497810000000000030e-01 -1.343104999999999993e+00 -3.435460000000000180e-01 -2.475849999999999995e-01 1.341115999999999975e+00 -3.351870000000000127e-01 -2.563719999999999888e-01 1.348122000000000043e+00 3.366310000000000136e-01 2.542840000000000100e-01 -1.347315999999999958e+00 -3.437589999999999812e-01 -2.477979999999999905e-01 1.341987999999999959e+00 3.416690000000000005e-01 2.499989999999999990e-01 -1.343224999999999891e+00 3.414760000000000018e-01 2.499919999999999920e-01 -1.343690999999999969e+00 -3.356589999999999852e-01 -2.556300000000000239e-01 1.347167000000000003e+00 3.417319999999999802e-01 2.493130000000000068e-01 -1.342505000000000059e+00 -3.432600000000000096e-01 -2.476349999999999940e-01 1.340967000000000020e+00 -3.352629999999999777e-01 -2.562139999999999973e-01 1.347644000000000064e+00 3.370159999999999823e-01 2.544000000000000150e-01 -1.346441999999999917e+00 -3.355509999999999882e-01 -2.555189999999999961e-01 1.347064000000000039e+00 3.366990000000000260e-01 2.546729999999999827e-01 -1.346850000000000103e+00 -3.352950000000000097e-01 -2.561700000000000088e-01 1.347628000000000048e+00 3.367800000000000238e-01 2.545080000000000120e-01 -1.346583000000000085e+00 3.371129999999999960e-01 2.541140000000000065e-01 -1.346103999999999967e+00 -3.351410000000000222e-01 -2.563389999999999835e-01 1.347374000000000072e+00 -3.436759999999999815e-01 -2.477149999999999908e-01 1.341582000000000052e+00 -3.351450000000000262e-01 -2.564480000000000093e-01 1.347464999999999913e+00 -3.350739999999999830e-01 -2.565230000000000010e-01 1.347798999999999969e+00 -3.350679999999999770e-01 -2.562039999999999873e-01 1.347377000000000047e+00 3.419090000000000185e-01 2.502079999999999860e-01 -1.343069000000000068e+00 3.363999999999999768e-01 2.543509999999999938e-01 -1.345626999999999907e+00 3.369719999999999938e-01 2.544480000000000075e-01 -1.346133999999999942e+00 3.369309999999999805e-01 2.544960000000000000e-01 -1.346216000000000079e+00 3.364500000000000268e-01 2.544190000000000063e-01 -1.345857000000000081e+00 -3.355480000000000129e-01 -2.562200000000000033e-01 1.347828000000000026e+00 3.420420000000000127e-01 2.492209999999999981e-01 -1.343563000000000063e+00 -3.431790000000000118e-01 -2.481990000000000030e-01 1.341963000000000017e+00 -3.356199999999999739e-01 -2.561990000000000101e-01 1.348265000000000047e+00 -3.354800000000000004e-01 -2.563449999999999895e-01 1.347761999999999905e+00 3.364510000000000001e-01 2.549469999999999792e-01 -1.347218000000000027e+00 3.361549999999999816e-01 2.548980000000000135e-01 -1.347056999999999949e+00 -3.356879999999999864e-01 -2.560740000000000238e-01 1.348190000000000000e+00 3.365420000000000078e-01 2.547280000000000100e-01 -1.346964000000000050e+00 3.362600000000000033e-01 2.548420000000000130e-01 -1.347148000000000012e+00 3.369409999999999905e-01 2.543239999999999945e-01 -1.346330999999999944e+00 -3.432419999999999916e-01 -2.478720000000000090e-01 1.341043999999999903e+00 -3.354920000000000124e-01 -2.557289999999999841e-01 1.346999999999999975e+00 3.368869999999999920e-01 2.542329999999999868e-01 -1.346289000000000069e+00 3.417649999999999855e-01 2.496790000000000120e-01 -1.342838999999999894e+00 -3.432180000000000231e-01 -2.477250000000000008e-01 1.340997999999999912e+00 -3.353459999999999774e-01 -2.561470000000000136e-01 1.347361999999999949e+00 3.417029999999999790e-01 2.495829999999999993e-01 -1.342759000000000036e+00 -3.435110000000000108e-01 -2.476170000000000038e-01 1.341471999999999998e+00 -3.351609999999999867e-01 -2.565990000000000215e-01 1.347890000000000033e+00 -3.435940000000000105e-01 -2.476949999999999985e-01 1.341223000000000054e+00 -3.350940000000000030e-01 -2.561100000000000043e-01 1.347204000000000068e+00 3.364969999999999906e-01 2.544150000000000023e-01 -1.345583999999999891e+00 3.370319999999999983e-01 2.543650000000000078e-01 -1.346038000000000068e+00 3.418939999999999757e-01 2.498750000000000138e-01 -1.342521999999999993e+00 3.419260000000000077e-01 2.500479999999999925e-01 -1.342470000000000052e+00 3.363809999999999856e-01 2.545299999999999785e-01 -1.346551999999999971e+00 -3.432230000000000003e-01 -2.483440000000000092e-01 1.342165999999999970e+00 -3.354639999999999844e-01 -2.563230000000000230e-01 1.347750999999999921e+00 3.366080000000000183e-01 2.544100000000000250e-01 -1.346640999999999977e+00 3.421649999999999969e-01 2.489929999999999921e-01 -1.343353999999999937e+00 -3.431879999999999931e-01 -2.480120000000000102e-01 1.341676000000000091e+00 -3.356450000000000267e-01 -2.559980000000000033e-01 1.348038000000000070e+00 3.421580000000000177e-01 2.491790000000000116e-01 -1.343367999999999896e+00 2.240999999999999936e-03 -7.259999999999999743e-04 2.357000000000000154e-03 1.477999999999999930e-03 -1.369999999999999961e-04 1.771000000000000005e-03 -5.955099999999999977e-02 1.793217999999999979e+00 -1.106910000000000061e+00 -5.874599999999999961e-02 1.792985000000000051e+00 -1.107129999999999947e+00 -1.958999999999999804e-03 7.029999999999999574e-04 -1.381999999999999982e-03 2.181999999999999912e-03 -6.239999999999999887e-04 2.167999999999999788e-03 -6.068199999999999983e-02 1.793587999999999960e+00 -1.094975000000000032e+00 1.722999999999999922e-03 -2.930000000000000204e-04 1.984999999999999785e-03 -5.859000000000000319e-02 1.792834999999999956e+00 -1.107132000000000005e+00 -5.962699999999999945e-02 1.792947999999999986e+00 -1.106724000000000041e+00 5.974299999999999750e-02 -1.793873000000000051e+00 1.105547999999999975e+00 6.144600000000000062e-02 -1.794057000000000013e+00 1.097463000000000077e+00 5.988199999999999773e-02 -1.793897999999999993e+00 1.104940999999999951e+00 6.146700000000000080e-02 -1.794235999999999942e+00 1.097255000000000091e+00 1.510999999999999973e-03 -3.319999999999999926e-04 1.920000000000000049e-03 -5.937599999999999822e-02 1.794335000000000013e+00 -1.108143000000000100e+00 -5.911999999999999894e-02 1.793541000000000052e+00 -1.107976999999999990e+00 -1.624000000000000010e-03 1.789999999999999870e-04 -1.564000000000000069e-03 1.405999999999999915e-03 -1.550000000000000000e-04 1.981999999999999821e-03 1.149000000000000065e-03 -2.069999999999999900e-04 2.027999999999999855e-03 1.307000000000000002e-03 1.800000000000000046e-05 1.590000000000000050e-03 -6.085600000000000037e-02 1.794542999999999999e+00 -1.096692999999999918e+00 -5.947999999999999815e-02 1.794288000000000105e+00 -1.107982999999999940e+00 -5.933800000000000185e-02 1.794024999999999981e+00 -1.108001000000000014e+00 -6.094600000000000017e-02 1.794106999999999896e+00 -1.094583000000000084e+00 5.939599999999999741e-02 -1.794556000000000040e+00 1.106187999999999949e+00 6.111500000000000266e-02 -1.794667999999999930e+00 1.097885999999999918e+00 5.988000000000000267e-02 -1.793916999999999984e+00 1.106338999999999961e+00 6.130800000000000138e-02 -1.794696000000000069e+00 1.097849999999999993e+00 -5.996900000000000147e-02 1.793692999999999982e+00 -1.106039999999999912e+00 -5.915999999999999731e-02 1.793822000000000028e+00 -1.106872000000000078e+00 -5.911299999999999888e-02 1.793811999999999962e+00 -1.107018000000000058e+00 -5.984099999999999836e-02 1.793857999999999953e+00 -1.106124000000000107e+00 1.838000000000000007e-03 -2.509999999999999753e-04 2.308999999999999855e-03 1.410999999999999928e-03 7.999999999999999638e-06 1.722000000000000006e-03 5.853799999999999976e-02 -1.793843999999999994e+00 1.104081000000000090e+00 -1.554000000000000043e-03 3.020000000000000223e-04 -1.296999999999999976e-03 6.157599999999999879e-02 -1.794637000000000038e+00 1.095906999999999965e+00 1.866999999999999953e-03 -8.500000000000000611e-05 2.295000000000000165e-03 6.029099999999999737e-02 -1.794767000000000001e+00 1.104508000000000045e+00 1.101999999999999898e-03 -2.290000000000000098e-04 1.874999999999999931e-03 6.124099999999999683e-02 -1.795279000000000069e+00 1.096009000000000011e+00 2.064999999999999995e-03 -4.249999999999999763e-04 1.817999999999999955e-03 -6.077300000000000063e-02 1.793776999999999955e+00 -1.094835999999999920e+00 -1.899000000000000080e-03 9.370000000000000074e-04 -1.418999999999999906e-03 -2.125999999999999852e-03 8.670000000000000406e-04 -1.280000000000000105e-03 1.381999999999999982e-03 -1.359999999999999989e-04 1.745000000000000023e-03 -5.962400000000000339e-02 1.793811999999999962e+00 -1.106816000000000022e+00 -5.834299999999999903e-02 1.793436000000000030e+00 -1.107385999999999981e+00 -6.052699999999999747e-02 1.794313000000000047e+00 -1.095231000000000066e+00 5.969599999999999906e-02 -1.793902000000000108e+00 1.105199999999999960e+00 5.972500000000000031e-02 -1.793868999999999936e+00 1.104883999999999977e+00 5.966099999999999876e-02 -1.793701999999999908e+00 1.104942000000000091e+00 6.154799999999999854e-02 -1.794529000000000041e+00 1.097269999999999968e+00 5.992600000000000010e-02 -1.794008000000000047e+00 1.105212000000000083e+00 -6.101100000000000273e-02 1.794041999999999915e+00 -1.095885999999999916e+00 -1.562999999999999936e-03 1.730000000000000038e-04 -1.343000000000000010e-03 1.374000000000000004e-03 -1.230000000000000082e-04 1.727000000000000019e-03 -5.940000000000000141e-02 1.793957000000000024e+00 -1.107722000000000095e+00 -5.933800000000000185e-02 1.793946000000000041e+00 -1.108082000000000011e+00 -1.660999999999999933e-03 2.010000000000000068e-04 -1.208000000000000089e-03 1.309999999999999967e-03 -1.679999999999999907e-04 1.879999999999999944e-03 -6.064200000000000146e-02 1.794094999999999995e+00 -1.096073999999999993e+00 -5.917800000000000143e-02 1.794051000000000062e+00 -1.107194000000000011e+00 -6.111899999999999972e-02 1.794241999999999893e+00 -1.095132999999999912e+00 5.932799999999999879e-02 -1.794322999999999890e+00 1.106179000000000023e+00 6.015399999999999914e-02 -1.794199000000000099e+00 1.106359000000000092e+00 5.930099999999999955e-02 -1.794327000000000005e+00 1.106238000000000055e+00 6.121800000000000158e-02 -1.794432000000000027e+00 1.098119000000000067e+00 5.995199999999999835e-02 -1.794159000000000059e+00 1.106505999999999990e+00 -5.978900000000000187e-02 1.794135999999999953e+00 -1.106621000000000077e+00 -6.109099999999999947e-02 1.794130999999999920e+00 -1.094783000000000062e+00 6.013600000000000195e-02 -1.794016999999999973e+00 1.104668999999999901e+00 1.655999999999999920e-03 2.049999999999999956e-04 1.933000000000000039e-03 5.829999999999999766e-02 -1.793817999999999913e+00 1.103769000000000000e+00 -1.273999999999999959e-03 1.820000000000000057e-04 -1.672000000000000092e-03 6.040500000000000036e-02 -1.794548000000000032e+00 1.104851000000000028e+00 1.039999999999999909e-03 -5.000000000000000409e-06 1.726000000000000104e-03 5.868400000000000005e-02 -1.793455000000000021e+00 1.103944999999999954e+00 -1.350000000000000071e-03 3.049999999999999868e-04 -1.453999999999999997e-03 6.143300000000000149e-02 -1.794240000000000057e+00 1.095753999999999895e+00 -6.091699999999999893e-02 1.793169999999999931e+00 -1.095164999999999944e+00 9.700000000000000505e-04 2.030000000000000012e-04 1.948999999999999995e-03 -6.138699999999999712e-02 1.793333999999999984e+00 -1.095212999999999992e+00 -1.649000000000000075e-03 2.000000000000000096e-04 -1.242999999999999964e-03 1.056999999999999997e-03 4.229999999999999819e-04 1.729000000000000068e-03 -5.976599999999999968e-02 1.793469999999999898e+00 -1.106762000000000024e+00 -1.235999999999999903e-03 -3.159999999999999832e-04 -1.356000000000000000e-03 -5.994100000000000122e-02 1.793611000000000066e+00 -1.106684999999999919e+00 6.112200000000000272e-02 -1.793776999999999955e+00 1.097339000000000064e+00 5.955400000000000277e-02 -1.793860999999999928e+00 1.105021000000000031e+00 6.130200000000000232e-02 -1.793916999999999984e+00 1.096888000000000085e+00 6.106799999999999728e-02 -1.793835000000000068e+00 1.097083999999999948e+00 6.133500000000000063e-02 -1.794426999999999994e+00 1.097290000000000099e+00 -6.156099999999999767e-02 1.794413000000000036e+00 -1.096249999999999947e+00 -1.657999999999999969e-03 2.390000000000000089e-04 -1.827999999999999981e-03 1.237999999999999951e-03 -1.250000000000000026e-04 1.812000000000000026e-03 -5.953699999999999964e-02 1.793766999999999889e+00 -1.107944999999999958e+00 -6.068899999999999989e-02 1.794537999999999967e+00 -1.096179999999999932e+00 -1.982999999999999954e-03 4.400000000000000157e-04 -1.170999999999999949e-03 1.428999999999999932e-03 -4.569999999999999952e-04 1.879999999999999944e-03 -5.976100000000000162e-02 1.794057999999999931e+00 -1.108163999999999927e+00 -6.106999999999999929e-02 1.794305000000000039e+00 -1.094683000000000073e+00 -5.955599999999999783e-02 1.793994000000000089e+00 -1.107210999999999945e+00 6.138799999999999812e-02 -1.794863000000000097e+00 1.098160999999999943e+00 5.934799999999999798e-02 -1.793865999999999961e+00 1.106084000000000067e+00 6.208899999999999836e-02 -1.794726999999999961e+00 1.098748999999999976e+00 6.129400000000000126e-02 -1.795004000000000044e+00 1.098530000000000006e+00 6.174400000000000027e-02 -1.794154000000000027e+00 1.098333000000000004e+00 -6.137299999999999700e-02 1.794214999999999893e+00 -1.094926000000000066e+00 -5.957500000000000295e-02 1.794164000000000092e+00 -1.107123000000000079e+00 6.084699999999999831e-02 -1.794953999999999938e+00 1.096643999999999952e+00 1.435999999999999993e-03 -6.499999999999999431e-05 1.678000000000000021e-03 -1.791000000000000057e-03 2.629999999999999959e-04 -1.273999999999999959e-03 6.081799999999999706e-02 -1.793948000000000098e+00 1.096160999999999941e+00 1.562000000000000020e-03 -1.710000000000000094e-04 1.954000000000000008e-03 5.925799999999999818e-02 -1.794348999999999972e+00 1.104756999999999989e+00 -1.438999999999999958e-03 4.620000000000000083e-04 -1.397999999999999937e-03 6.099199999999999761e-02 -1.794694999999999929e+00 1.096791000000000071e+00 6.128399999999999820e-02 -1.794756000000000018e+00 1.096842000000000095e+00 -6.075900000000000051e-02 1.793714999999999948e+00 -1.095415999999999945e+00 -1.299999999999999940e-03 -3.089999999999999756e-04 -1.350000000000000071e-03 -1.623000000000000094e-03 1.710000000000000094e-04 -1.575999999999999927e-03 -5.985399999999999748e-02 1.793747999999999898e+00 -1.106629000000000085e+00 -1.327000000000000055e-03 1.140000000000000063e-04 -1.368999999999999991e-03 -6.134599999999999775e-02 1.793768999999999947e+00 -1.095244000000000106e+00 -1.698000000000000074e-03 5.069999999999999637e-04 -1.794000000000000022e-03 1.160000000000000007e-03 2.849999999999999886e-04 1.639000000000000049e-03 -6.089399999999999674e-02 1.793863999999999903e+00 -1.095655999999999963e+00 -6.128800000000000220e-02 1.793514999999999970e+00 -1.094826000000000077e+00 5.932400000000000173e-02 -1.794008999999999965e+00 1.104897999999999936e+00 6.113099999999999784e-02 -1.794289999999999941e+00 1.097541000000000100e+00 5.944300000000000278e-02 -1.793944999999999901e+00 1.105053999999999981e+00 6.127500000000000308e-02 -1.794526000000000066e+00 1.096878000000000020e+00 -1.804999999999999964e-03 5.469999999999999602e-04 -1.461000000000000059e-03 -1.915000000000000036e-03 6.440000000000000412e-04 -2.141000000000000108e-03 -6.074199999999999738e-02 1.794229000000000074e+00 -1.095930000000000071e+00 -1.858000000000000059e-03 2.999999999999999737e-04 -1.333999999999999899e-03 -6.166399999999999659e-02 1.794518999999999975e+00 -1.096567999999999987e+00 -1.910999999999999938e-03 5.119999999999999768e-04 -1.765999999999999992e-03 1.382999999999999898e-03 -1.720000000000000066e-04 1.991000000000000148e-03 -5.954700000000000271e-02 1.794081999999999955e+00 -1.108103000000000060e+00 -6.154899999999999954e-02 1.794675000000000020e+00 -1.096247999999999889e+00 -6.096100000000000130e-02 1.794118000000000102e+00 -1.095639000000000030e+00 -6.173599999999999921e-02 1.794356000000000062e+00 -1.094583000000000084e+00 5.950699999999999740e-02 -1.794145000000000101e+00 1.106143000000000098e+00 6.135199999999999682e-02 -1.794793000000000083e+00 1.098389000000000060e+00 5.950799999999999840e-02 -1.794332000000000038e+00 1.106586000000000070e+00 6.188099999999999851e-02 -1.794289000000000023e+00 1.098524000000000056e+00 -6.133799999999999669e-02 1.794029000000000096e+00 -1.094864000000000059e+00 -5.915499999999999925e-02 1.793970000000000065e+00 -1.106940000000000035e+00 -6.126600000000000101e-02 1.794108000000000036e+00 -1.094543999999999961e+00 -6.132100000000000051e-02 1.794103000000000003e+00 -1.094533999999999896e+00 6.070300000000000001e-02 -1.794675000000000020e+00 1.096748000000000056e+00 -1.443999999999999971e-03 -2.500000000000000120e-05 -1.410000000000000012e-03 5.935300000000000298e-02 -1.794213000000000058e+00 1.104222999999999955e+00 -1.430000000000000064e-03 3.339999999999999870e-04 -1.464999999999999939e-03 -1.794000000000000022e-03 2.030000000000000012e-04 -1.433999999999999945e-03 6.110399999999999859e-02 -1.794486000000000026e+00 1.096533999999999898e+00 1.663999999999999898e-03 -2.970000000000000092e-04 1.830000000000000029e-03 5.930900000000000061e-02 -1.793913000000000091e+00 1.104403999999999941e+00 -1.673999999999999924e-03 5.559999999999999621e-04 -1.559999999999999972e-03