-4.702366319299999873e+02
-4.702366327400000046e+02
-4.702366343699999902e+02
-4.702366368400000169e+02
-4.702366402100000187e+02
-4.702366445600000020e+02
