-1.412881319529999928e+03
-1.412881320660000029e+03
-1.412881322660000023e+03
-1.412881325849999939e+03
-1.412881330250000019e+03
