1.630378652826340313e-01 -1.143081112309865619e-03 3.289655248256123828e-03 -5.864111413432558997e-03 2.019043934668052903e-03 2.774732585444976592e-03 -7.201144724762012159e-03 -5.309441154843830063e-04 3.543714294249013502e-03 -2.414146212498254063e-03 3.136053652967446797e-03 3.650857235005207542e-03 6.058501701318009082e-04 -3.607949292290681727e-03 3.610075826850515923e-03 -1.528082491093973047e-03 4.780300481835025460e-04 2.034930999676823858e-03 1.453915541836678024e-03 2.492028946554127478e-03 2.122023875158355732e-03 1.072826019049648609e-03 1.065060025013254757e-03 4.293028590164389528e-03 1.718784448340699529e-04 -3.641958806034699750e-03 2.915058636691160183e-03 6.698972241868125874e-04 4.730353877005467021e-04 2.533020574533455509e-03 7.218519444706477653e-04 -4.599491424130689376e-04 3.627035918854047778e-03 -1.073123849990291739e-03 -2.395604516700565977e-05 3.040956643966166023e-03 -1.861074905260364008e-04 -3.999625383649944746e-04 2.631998094580376060e-03 -1.711249815190493966e-04 -1.195635445247787560e-05 3.068993204014683080e-03 -3.661451215182282178e-04 4.250509296187855463e-04 3.571979067298492166e-03 4.618735825400846528e-04 -2.495635386489631838e-05 3.104019164591829277e-03 2.108725246059753831e-04 1.223044551431094100e-03 3.153991249762911828e-03 2.198769862867281852e-04 -1.189957667108689854e-03 2.998025827338835544e-03 -5.612528309037237407e-05 1.904366892220194537e-05 3.076997447394457137e-03 -9.122686398475296360e-06 7.042724743689104503e-06 3.012999531467115688e-03 1.887395017864246639e-05 -2.395613459785831976e-05 3.095001111085387419e-03 4.871443520363565137e-06 -9.552446149182820015e-07 3.157000214847277206e-03 -1.431229956239938694e-04 -2.395707108713330220e-05 3.019994514377226380e-03 -1.212223454887953542e-05 1.204257113642452023e-05 3.001999338425970394e-03 -1.125353632621903020e-06 -1.895635996096043532e-05 3.078000225795350740e-03 -2.051263918323539175e-04 7.044168390313720822e-06 3.103991550095703319e-03 -6.122833612853802026e-06 2.704277910386586057e-05 3.016999370070681374e-03 8.214266153955494798e-05 1.249502993201471470e-04 -3.500998429856118106e-03 -1.768736931853813813e-04 3.995617324286579442e-05 -3.101007771818501714e-03 7.210535797421665008e-05 -1.910367910242543503e-04 -2.590994357737307768e-03 3.531225216876360002e-04 4.295707678956949699e-05 -3.007986232387152743e-03 1.591295619273645713e-04 1.929548184504902789e-04 -3.177996258738757622e-03 2.312274892285475866e-05 -2.390428207490192234e-04 -3.018995672128498269e-03 -1.218813221074219601e-04 7.395879560017791423e-05 -2.913006014390412575e-03 -1.148688287010418013e-04 -4.004559080806990694e-05 -3.222004112792173705e-03 -3.398757283335975422e-04 -1.104300441164660462e-05 -3.052013686296847165e-03 -1.376985883388204333e-04 2.852895943503320868e-03 -7.347046061806867222e-03 3.209594806308852660e-02 1.272034458125974841e-02 2.607812665176584971e-02 3.085917332813930408e-02 -1.639243715922181210e-02 -2.912851100699828666e-02 5.660115939306538217e-03 1.677955657578648289e-03 -2.814793307652958126e-03 2.584182407056173896e-03 -1.221065865751496879e-03 -4.502877462085539718e-03 9.568077767101723641e-03 -4.180346846765874689e-04 -1.917604454808417109e-03 6.261349331727499891e-04 1.019952808083652261e-03 -3.293988967003840581e-03 1.951188310601737602e-04 -4.204153766468156844e-05 -2.918991461254469202e-03 -5.728763448876256692e-04 -9.540428644118630497e-04 -3.055009804621418995e-03 4.012769503608530272e-05 -7.044492885399615302e-06 -3.135998269006390598e-03 -5.587942554627987321e-05 -4.193660428576271107e-08 -2.961002277615121768e-03 -8.869317414057012732e-06 1.195451050043509121e-05 -3.209000533637740380e-03 7.127264372832089030e-06 1.495568890700467426e-05 -3.124999924715499318e-03 -2.876193780962247192e-06 -3.304311232338430601e-05 -3.040999651469449960e-03 -4.387204097986785803e-05 1.795548781698501814e-05 -3.142002043996393410e-03 -2.987097049603684983e-05 3.295510823084722289e-05 -3.168001686546760131e-03 -2.187503712664009685e-05 -1.204349442684455525e-05 -3.069000722872625587e-03 -6.875213343190423657e-06 -2.904344945889164372e-05 -3.064999871041598333e-03 -6.990122802298999792e-06 8.099658862412483309e-05 -2.410014332207654597e-04 -9.000689976950612670e-05 -2.299753348061091737e-05 1.689966610548571005e-04 1.209996662722063093e-04 -6.199999549171701424e-05 7.005806237812889452e-06 1.389968658972168660e-04 -1.019990454915306648e-04 7.500710626045897745e-05 -2.100067737394785224e-05 -3.299975670902814093e-05 1.599961271344739258e-05 -4.498937020632442341e-05 1.059963631751419301e-04 -2.590033350404617914e-04 7.300083083627855905e-05 7.299967345580948060e-05 -1.899806233693922318e-05 -6.998581816955184128e-06 -9.000490740957317829e-06 -3.500015741355066323e-05 -1.269985049771880415e-04 -1.500042513640446427e-05 -3.700495884724465878e-05 -2.312953898531728159e-03 8.879860027387580105e-04 -1.115106776146089496e-03 -8.346045892432584282e-03 -1.463977883569390383e-03 1.098680899000667845e-03 -9.527022376606859855e-03 4.310153707707405318e-04 5.576059413166416841e-04 -2.243083521440416075e-02 -5.911041415646040714e-03 -4.160829600784413107e-03 5.901436342643314251e-03 -8.307810639809610348e-03 1.368235811060341048e-02 -1.212264116488764865e-02 1.480188859670912398e-02 -8.527703510206242898e-03 -1.104990827866348313e-03 -7.680025373827116227e-04 -2.400341077950374625e-04 -4.509819193639723052e-04 -1.195006267778698714e-03 -4.670014222423878470e-04 1.727955373368320188e-03 1.929014710230323717e-03 1.133043015671766213e-03 7.998865319840208255e-06 5.900040488614840975e-05 2.899948925180601453e-05 -3.269993536803603531e-04 -6.999970804277140999e-06 -1.601321645909729014e-05 -2.200245261005440966e-05 4.000088206740012864e-05 6.099853697403124044e-05 -1.590010899529051280e-04 -3.999950687689930718e-05 2.599409247104158527e-05 -1.019902254215954433e-04 -1.540033653231403870e-04 -2.430019699253475440e-04 -1.220086036747139376e-04 1.410031295595243553e-04 2.139930327925808481e-04 1.680072128594132207e-04 -1.490026835314986486e-04 -1.799910462429280846e-04 4.098921136905598944e-05 1.590037675302859188e-04 2.679994150413721405e-04 -7.199919024990519844e-05 -5.800024135213233790e-05 -2.100210957147773182e-05 -3.445045105165780996e-02 1.274153567144776893e-02 3.587841653516155721e-02 -1.493854325344270160e-03 -4.717015083925940708e-04 2.097094587617902989e-02 -3.252422827364475494e-02 -1.306889861042134955e-02 5.353860879251036778e-03 -1.019583114223403600e-02 5.529737979921914293e-05 2.041158405217091340e-02 -3.208941633036753970e-03 -1.515670051811588001e-03 2.309489083952995930e-02 -1.563799042574878350e-03 1.690279888220484620e-03 1.965491237461818724e-02 -7.488443782236829790e-04 -2.487054944180983659e-04 2.073097305179496391e-02 -6.838411256615725383e-04 -9.827068779516170798e-04 2.063698610521605414e-02 -3.558801918414411037e-04 1.181307056980646260e-03 2.163796878004455027e-02 1.071155267249885917e-03 8.029329316266130018e-05 2.074604249924587307e-02 2.513258583759912790e-03 2.378256818606698953e-03 1.825306864053021991e-02 2.672017523384752260e-03 -2.341660663044687046e-03 2.408214202877048682e-02 -8.358105065481464006e-04 -8.827173922928048880e-04 1.988697849856753408e-02 -8.969115067021284082e-04 7.643182699258765141e-04 2.239895266148403397e-02 -1.475842080673718569e-03 3.229435172421542602e-05 2.067993946383207826e-02 2.615258784314274386e-05 6.092951888527625703e-04 2.082199244584893166e-02 5.921429338591420715e-04 -6.970207842844932701e-05 2.104602512034382464e-02 -9.863611001566648402e-06 -6.276994803392061360e-04 2.119600851744403089e-02 1.421417627808561988e-04 4.629871341978296243e-05 2.107700515131144189e-02 -6.285975704094649407e-05 2.929939851413716482e-05 2.111399704452454965e-02 -6.186151670716736467e-05 -8.570002096765577605e-05 2.115499871565008558e-02 1.921377783906343042e-04 1.063000778656674410e-04 2.117600633659616136e-02 5.314006734238198559e-05 -1.947006922908351616e-04 2.111400494396229593e-02 -1.548588916405461058e-04 4.229917281477032955e-05 2.109299311391484369e-02 6.113800010069464974e-05 7.730009537431521140e-05 2.117000141332538513e-02 -1.018571352283507314e-04 -2.701492502485395621e-06 2.104899591016020852e-02 1.091379655586686867e-04 -1.869995637761772688e-05 2.116900472899246183e-02 1.050854944110216375e-03 -3.829849913357906421e-05 -2.099595668483346736e-02 -6.581493008344111101e-04 -9.362959274344232787e-04 -2.090901354521730940e-02 -8.031083542391065496e-04 9.106904334523183327e-04 -2.187904563516813311e-02 -1.991545428587187226e-04 -1.422942453071708742e-04 -2.076500611162469812e-02 -2.551206808957225190e-04 2.506941159976156289e-04 -2.158901396308741602e-02 -3.701329042044315567e-04 3.369840269147721123e-05 -2.129301556968578313e-02 9.982484405354420567e-05 9.387129921661576835e-04 -2.023800926274242282e-02 2.478714938673312390e-04 -6.930364074725352426e-05 -2.140298894378789979e-02 2.178961444386526909e-04 -9.863124499314358980e-04 -2.202597716382519513e-02 1.238378318613268976e-02 -8.828240572633903351e-05 -1.923449448817661153e-02 1.103494663067594063e-02 -1.400338613447732168e-03 -2.327353081562445053e-02 -1.294091935265491988e-01 2.249821188247131364e-03 -1.976430156694286913e-02 6.859157093974223643e-04 6.677682461647888208e-03 -2.235906676453652819e-02 1.209287579691048850e-04 -1.043323744566943987e-03 -2.282798030486970012e-02 -5.462439329977384966e-04 -5.765264383981718796e-03 -1.867794052213613346e-02 2.839804800993173724e-03 -4.202825462536674745e-04 -1.977187842046300437e-02 2.310568570345904497e-04 5.493633351702477408e-03 -2.584806850280847029e-02 3.244734596539285837e-03 -4.943259653860131164e-03 -1.813479780401588970e-02 1.068504186113409935e-04 -4.629618624911605647e-05 -2.088499501199799976e-02 3.385417441703141397e-05 1.770258072377334382e-05 -2.097599889191240075e-02 -1.621466766401789752e-04 2.270303192421847639e-05 -2.095500694410755774e-02 1.884810624073722930e-05 1.670470496032561356e-05 -2.082699948868591000e-02 -2.314634396156542532e-05 -2.029720450807057910e-05 -2.096400067425705643e-02 1.885913059337018040e-05 -4.929915139335962383e-05 -2.109899855270067418e-02 -2.114983496045507195e-05 4.570402738748015689e-05 -2.087700152862861924e-02 1.648503911881263751e-04 2.270379668574163827e-05 -2.088299362845617152e-02 6.285785726578873623e-05 -1.129873215956970102e-05 -2.106699729976798177e-02
1.629698655270154783e-01 -1.143081144132899194e-03 3.283652479243825799e-03 -5.878111049284108144e-03 2.016043818030143105e-03 2.765732057894717145e-03 -7.222144687941622725e-03 -5.359441132187550130e-04 3.542713510000887293e-03 -2.416146292371128702e-03 3.138053682888828407e-03 3.652857125206119149e-03 6.088500785011773195e-04 -3.620949266282768447e-03 3.612076133322135538e-03 -1.536082659455712289e-03 4.710301111593589475e-04 2.038930773150640727e-03 1.461915351546591796e-03 2.509029011177421695e-03 2.127023959898537413e-03 1.066825741844479921e-03 1.075060128954791151e-03 4.300028204055140850e-03 1.698777079427411590e-04 -3.646958549267886873e-03 2.933058626121542306e-03 6.728973533990056889e-04 4.820353428172648798e-04 2.530020569098926416e-03 7.178514143194716706e-04 -4.609489549696437058e-04 3.640035770136322135e-03 -1.073124002687196772e-03 -1.095598845713475422e-05 3.044956459651522711e-03 -1.861073284262498449e-04 -4.009625950760750462e-04 2.627998108761858340e-03 -1.751251874706522709e-04 -1.495628043121400215e-05 3.073993083659921129e-03 -3.641449985737935341e-04 4.260508855193064024e-04 3.568979134565219979e-03 4.668736201224836643e-04 -2.895637195726921681e-05 3.103019424908068195e-03 2.038721565570741239e-04 1.221044684512427331e-03 3.162990993064114520e-03 2.248770215184068026e-04 -1.196957685200760076e-03 2.997026130188365153e-03 -6.912748592281822246e-05 1.404444470260564159e-05 3.130996988862011846e-03 1.875402847214714517e-06 1.104338248671021617e-05 3.059999922641732858e-03 2.087219761371619892e-05 -2.595552651844838937e-05 3.138001220842644157e-03 -1.131079599593766776e-06 1.045639106169550133e-06 3.218999942109008160e-03 -1.361249008899718341e-04 -1.295641021283324784e-05 3.066994643424094790e-03 -9.124306612767394792e-06 1.804329185439470634e-05 3.052999375474533660e-03 -1.112743900647684038e-05 -2.995562906232642674e-05 3.128999974494828078e-03 -2.001281044625018461e-04 4.044759943040631186e-06 3.145991796194206377e-03 -7.124340283104822268e-06 2.704330446529045471e-05 3.053999329315435114e-03 7.914421285183100918e-05 1.299497629124077259e-04 -3.538998622872163800e-03 -1.848723039687448836e-04 4.595569746118782648e-05 -3.135008182620285105e-03 7.910732197161324340e-05 -1.790374770406145846e-04 -2.638994242779890784e-03 3.571241513014922816e-04 4.395650654566953588e-05 -3.047986083644327934e-03 1.571309824569828550e-04 1.869543237942497397e-04 -3.212996255081343715e-03 2.212438010800507599e-05 -2.360433870781400109e-04 -3.058995755345455571e-03 -1.308798216974648766e-04 6.595827806952138264e-05 -2.950006267421569940e-03 -1.198670455992426395e-04 -5.104621071497618070e-05 -3.266004160400128812e-03 -3.258737353747691236e-04 -1.404371008526315107e-05 -3.101013073626091021e-03 -1.386978992180047893e-04 2.848895703264199206e-03 -7.364046045800860460e-03 3.212194749297520024e-02 1.272034475939098387e-02 2.609212771049496463e-02 3.088417424745926870e-02 -1.641443750488378803e-02 -2.915150967704483245e-02 5.669116349641768748e-03 1.681955508753325878e-03 -2.824792997867055927e-03 2.597182776667245237e-03 -1.217066003531008323e-03 -4.511876989417163385e-03 9.579077529036150035e-03 -4.100346082235794502e-04 -1.911604120306740172e-03 6.171350561263080209e-04 1.020952772597130687e-03 -3.296989347666475206e-03 2.061188803911987257e-04 -3.104156045654357063e-05 -2.919991169279574986e-03 -5.728763057339326861e-04 -9.560428785894569846e-04 -3.056009776264962622e-03 4.512753214857825803e-05 -7.044440089198941674e-06 -3.131998065405853029e-03 -5.587971215930692687e-05 -2.041837359516597110e-06 -2.954002249266101960e-03 -1.286992900691307080e-05 1.095472629945097487e-05 -3.194000682357324948e-03 9.126854028479226166e-06 1.095582911936923824e-05 -3.114999786572039079e-03 -7.876683210468870202e-06 -3.404293827475835487e-05 -3.028999840907097528e-03 -4.587253824759755159e-05 6.955659517630613234e-06 -3.130001969493852697e-03 -2.087120699280664400e-05 4.295518624964587826e-05 -3.162001461842312445e-03 -2.387568944199496733e-05 -1.304326601602561903e-05 -3.053000790151437927e-03 -1.287557825862715222e-05 -2.704331716095806490e-05 -3.056000143730598292e-03 -1.199505707195476152e-05 7.199830805325186365e-05 -1.200015093376312266e-04 -8.200922243116893617e-05 -2.499673161004283784e-05 2.259970151242058679e-04 1.309962222311280623e-04 -3.999879821129055451e-05 9.200590145651191926e-05 1.129915855303290458e-04 -8.499718202194718345e-05 2.050058063755032017e-04 -3.000515274101707436e-05 -2.799819010507683423e-05 1.259991752347141745e-04 -1.899331544792900089e-05 1.119977180627872415e-04 -1.620023614550845979e-04 6.399657315275086150e-05 4.400115499641618839e-05 8.500198223386304667e-05 -1.700107831707767182e-05 -2.499961806386561970e-05 2.599966216544813733e-05 -1.140022967275322585e-04 -2.099911677978084264e-05 5.599565550394800515e-05 -2.300945991646557824e-03 8.969832428495965121e-04 -1.309106414915405187e-03 -8.286040309025827222e-03 -1.457979872907729478e-03 9.616832573125091510e-04 -9.429017294418874304e-03 4.210135218137049597e-04 4.326100738538855655e-04 -2.224482738126925055e-02 -5.892044283421950766e-03 -4.352822295905128640e-03 5.847447671725914016e-03 -8.244814524783487114e-03 1.340535501873585042e-02 -1.202763695120552707e-02 1.467088701949138645e-02 -8.633697784339835340e-03 -1.087984127722628437e-03 -7.400048758549086173e-04 -4.040338123654914305e-04 -4.359777564478503121e-04 -1.183007725659977662e-03 -5.690009814679636031e-04 1.696960294347085079e-03 1.921013018990771907e-03 1.012041866859970940e-03 -1.000465142046123662e-06 3.000017091351616936e-05 1.199953393508968725e-05 -2.949991227026104411e-04 -2.400008092521251562e-05 -2.201167236430502652e-05 -3.900125682867934426e-05 7.000470047800660874e-06 3.099831261364463026e-05 -1.680006279118776487e-04 -2.199965578749750084e-05 1.499347079386471045e-05 -8.699012361944575384e-05 -1.280034054262945472e-04 -2.450017277325717484e-04 -1.250089310060927960e-04 1.390032453310773226e-04 2.219929389781176291e-04 1.710071384674064431e-04 -1.400026575258037076e-04 -1.779910516821051124e-04 5.199109940646936797e-05 1.780031067368260662e-04 2.219995936359900693e-04 -8.899832334456286658e-05 -4.300052577641248780e-05 -4.200301447287715174e-05 -3.411843877617953824e-02 1.271353112980166955e-02 3.557643045174224000e-02 -1.578845291490895385e-03 -4.277045751351317903e-04 2.074994179129053748e-02 -3.229022769897069156e-02 -1.290689894961453109e-02 5.342868111142741461e-03 -1.007682396530341917e-02 1.629477715682894537e-05 2.023458945104951098e-02 -3.203933207011275264e-03 -1.623673018874912007e-03 2.288589257452695522e-02 -1.581791417601392845e-03 1.651277236892818552e-03 1.946691219475040965e-02 -7.288375245769920623e-04 -1.807078777767023468e-04 2.056397290227931357e-02 -7.358366157916578117e-04 -9.957084109697917143e-04 2.052598417214590576e-02 -3.098757705466489315e-04 1.159305475585346726e-03 2.152897096521582190e-02 1.031160994792199286e-03 1.029131124262275298e-05 2.060404186298727194e-02 2.525264046586127905e-03 2.334254895212807112e-03 1.811806975312752269e-02 2.659024689454821642e-03 -2.394663162330173609e-03 2.390514225098542417e-02 -8.368064673484210819e-04 -8.727187951125578002e-04 1.978797831616108116e-02 -8.559054267688149609e-04 8.323161395024651805e-04 2.225095336708859603e-02 -1.507837006188664968e-03 6.429261873024141286e-05 2.055593770719168351e-02 -1.984214816031456383e-05 6.232933959335725188e-04 2.069299037432100960e-02 6.431493089915155115e-04 -4.070433010025348265e-05 2.089002678609711006e-02 -3.885623345331060618e-05 -6.187020238141857035e-04 2.101500720910773334e-02 8.314848333553963918e-05 4.829642028011961170e-05 2.091200272057908496e-02 -3.285340696550717045e-05 2.629716328847825788e-05 2.095799830882839193e-02 -3.485409535022376495e-05 -7.270262246861863788e-05 2.097299963097132638e-02 1.721468583709713626e-04 1.052969318773253759e-04 2.095300553656420303e-02 4.014666023635991940e-05 -1.477029647416767261e-04 2.095300374838601418e-02 -1.218511100696067047e-04 4.729643901647875159e-05 2.090199438699166801e-02 8.214557805240548275e-05 3.029742768840116527e-05 2.098300293499197680e-02 -7.884969743802762194e-05 -2.070410504613384348e-05 2.086599710210964437e-02 8.714537833694454357e-05 -1.670251951066002290e-05 2.098700380494739406e-02 1.117843373876050220e-03 6.705489072820490920e-06 -2.071095459480073314e-02 -6.551653417135698543e-04 -9.322903437324419305e-04 -2.051501348013206813e-02 -8.491225900399147200e-04 9.316954316964014618e-04 -2.152904780638567606e-02 -1.641668476335925338e-04 -1.512899910169293344e-04 -2.046300455907577864e-02 -2.671331563756907898e-04 1.796984496283129615e-04 -2.128401344539995049e-02 -3.851452207164189775e-04 -4.229731803951444779e-05 -2.099201510326833761e-02 1.638128258926261759e-04 9.837171386772947460e-04 -1.994200729488247031e-02 1.888570670102808534e-04 -3.229856143685640505e-05 -2.104799187122537163e-02 2.018854528931903261e-04 -9.633087086456356210e-04 -2.176297814169185843e-02 1.230677307094820740e-02 -1.612788435128210843e-04 -1.898749658893502876e-02 1.096893609343600230e-02 -1.388334889722196491e-03 -2.301453367357455398e-02 -1.287442022421690646e-01 2.196823687430442956e-03 -1.955127373635341670e-02 6.329063365960166040e-04 6.668685764040524142e-03 -2.212906879535557481e-02 1.919177225875557345e-04 -9.913199438045742617e-04 -2.255597815118581817e-02 -5.472548007097886771e-04 -5.655260569382859065e-03 -1.840894212266102475e-02 2.754793746126692287e-03 -4.452786375139304413e-04 -1.950088152754318391e-02 2.670457229767921915e-04 5.471637194054967956e-03 -2.557506672520081653e-02 3.258722710743831765e-03 -4.937255524906436661e-03 -1.784279731926200277e-02 4.684708347009150276e-05 -4.129497669063096767e-05 -2.080299752621411064e-02 4.585206632627987088e-05 2.970330857196862255e-05 -2.092399857344368758e-02 -1.131489985522737130e-04 2.170380169184334829e-05 -2.089800493466107550e-02 2.384340923566615245e-05 -1.293668506373790872e-06 -2.071199902998881875e-02 -2.814924843282720149e-05 1.470382020464795539e-05 -2.089200137414996480e-02 3.585541168706137552e-05 -1.429786035064926293e-05 -2.100699835675344865e-02 -4.515210279539563315e-05 9.704825961762088534e-06 -2.082200199558068704e-02 1.898480027171721657e-04 -1.129540057360360389e-05 -2.082499212844485248e-02 6.585444219775396914e-05 -4.297543574453338626e-06 -2.098299727692786235e-02