-1.412881256509999957e+03
-1.412881257909999931e+03
-1.412881260610000027e+03
-1.412881264639999927e+03
-1.412881270260000065e+03
