-4.702366443000000231e+02
-4.702366451299999994e+02
-4.702366467300000181e+02
-4.702366491799999721e+02
-4.702366525200000069e+02
-4.702366566000000034e+02
