-4.702364059099999736e+02
-4.702364065599999776e+02
-4.702364077700000280e+02
-4.702364096100000097e+02
-4.702364120999999955e+02
-4.702364151900000024e+02
