-4.702365254299999719e+02
-4.702365260700000249e+02
-4.702365271900000039e+02
-4.702365288999999962e+02
-4.702365312399999766e+02
-4.702365341299999955e+02
