1.614609145368096910e-01 9.629035484199835590e-04 2.120561174190751640e-03 -5.916107374390385323e-03 1.613042458400678822e-03 2.667736224232152790e-03 -4.593092715926161244e-03 1.060359074862909576e-04 2.278811464169339194e-03 -6.701031888465989669e-04 2.335037088906271110e-03 2.578939609554621766e-03 -1.126183428400698815e-03 -4.809936565428282219e-03 4.412022339262531949e-03 6.628425165242984515e-04 -1.162946005386036007e-03 3.845043483088896822e-03 -1.726105877931047652e-03 3.891039276661704613e-03 2.674874547646646176e-03 1.238851769520639499e-03 1.396051019702627049e-03 3.667030657567895910e-03 -6.431683017553361647e-04 -4.732942189407473611e-03 4.042040916089784976e-03 -9.551350481942577977e-04 2.360478321959386507e-04 3.320957762547809434e-03 6.287753255851188526e-05 1.118042895100690264e-03 3.028986711858310584e-03 9.438649924937170818e-04 1.860463169356884011e-04 3.319035800334112045e-03 3.187372396493567365e-05 2.070439969778578170e-04 3.104998365383795141e-03 1.018860153279029564e-03 -6.889522955656863460e-04 3.421051259846160687e-03 -1.167141837094768297e-03 -6.849498892245197736e-04 3.469962187309015567e-03 2.378966047634663837e-04 -2.659642597928188663e-04 2.534013460492045428e-03 -1.741016485751599062e-04 -2.199645326704452247e-04 2.491996031363309314e-03 8.873142647428399642e-06 -3.789559424207689662e-04 3.108005736970822531e-03 -1.712184925140874353e-05 3.604244744882756054e-05 2.992998794563758291e-03 2.687717262836388806e-05 3.504275326418622276e-05 3.017000600436660612e-03 4.187604886246447963e-05 4.043124322843846638e-06 3.044001650734995141e-03 3.487419537391088888e-05 1.850438244975428546e-04 3.092998799468299736e-03 2.387715460866188716e-05 1.204275561549335493e-05 3.017000804362666901e-03 7.875125632093104181e-06 2.104347703229270399e-05 3.067000025182697789e-03 7.187284677911783188e-05 2.304422087687744511e-05 3.123002602909584827e-03 -1.991266142223127589e-04 3.504424875628623878e-05 3.109991397437855513e-03 1.387520317591060862e-05 6.804345815178227167e-05 3.065999603153851324e-03 -8.572553827778506496e-07 1.269503359530357314e-04 -3.503001838040428230e-03 -1.368751897281638233e-04 9.566523275842814781e-07 -3.065005590085147398e-03 1.410562663814003356e-05 -1.600368306803746487e-04 -2.596997159051762406e-03 2.951269085914522854e-04 -2.304442316969449126e-05 -3.116987658362802525e-03 8.812927380607795845e-05 1.889549732881881563e-04 -3.170999093214640734e-03 3.012385383976235809e-05 -2.840432232037259463e-04 -3.046994749057155196e-03 -1.188844326151834317e-04 -5.004015757945305535e-05 -2.839004134253979468e-03 -9.586882558250643595e-05 -3.604560568540011409e-05 -3.222003395807056161e-03 -3.798760524999947145e-04 -9.042859669639085070e-06 -3.044015343493855497e-03 -1.576100551196769201e-02 -1.466733790519264037e-02 -2.470443387383372894e-02 1.336781870819397748e-02 -1.758330031538545696e-02 -2.044320637776337116e-02 -2.372053782233408525e-03 -2.847980193357076834e-03 1.265943787234634311e-03 4.278130427912069274e-03 -1.088049058760123073e-03 -3.223810367795245345e-03 -4.532248972608118290e-04 -3.889058377907148728e-02 2.933253295430731863e-02 -2.032915518966734326e-03 -1.528028238096219458e-03 -2.104061119911867280e-03 1.021165222301886275e-04 -4.028041748000112804e-03 -2.938938735709850560e-03 1.071118903898754483e-03 -1.767042719618251842e-03 -2.953931333114374110e-03 -2.157871487172774785e-03 -1.668043508937759904e-03 -3.188064224123686626e-03 2.813117825749670385e-05 2.095431139512566094e-05 -3.220999154554965178e-03 -5.987040899870305012e-05 2.195493323270573675e-05 -3.182002752203880961e-03 -4.876265793120306751e-06 3.095693176954215822e-05 -3.038000640290802919e-03 8.126718546039312269e-06 -6.044127562534720149e-06 -3.111999586273700436e-03 -8.881685604372973911e-06 -2.604119362373901429e-05 -2.905999995164397325e-03 -7.187217095489954787e-05 7.955552275271587031e-06 -3.139003042405378707e-03 -9.870758314097754152e-06 -8.044992491714809436e-06 -3.174000290835858173e-03 -1.873783416496104171e-06 -2.304394959731500896e-05 -3.099999752471387267e-03 -3.087261894312640488e-05 -4.404433804437497704e-05 -3.129000635616078704e-03 -1.298745091833290661e-05 8.995643417070852774e-06 -3.080006566846193940e-04 -7.609312067719631360e-09 7.002651247027242021e-06 1.869999005818208176e-04 6.199938521810959512e-05 -4.999835878327162127e-06 1.500259556764259123e-05 4.299705628527134710e-05 -6.699902703860955127e-05 7.100270084074883391e-05 -2.599875719675110494e-05 2.699959502131724884e-05 -3.000144151385469494e-05 -7.099034437560765721e-05 5.799670962717428822e-05 -2.360037132713251517e-04 6.300199446035354464e-05 -5.300075821318298106e-05 -4.999668311843597060e-05 -5.199835388465402216e-05 2.199947360176772470e-05 -4.000242935787041163e-05 -1.090007838419735807e-04 -1.169996736191028898e-04 1.699722020975077741e-05 -2.647335656490321966e-03 -1.223723256790580985e-02 -1.654993432013735291e-02 -3.200056638832795858e-03 -2.388978425036698914e-03 1.344903562703040137e-03 -9.416016828394130345e-03 -1.010987041154902052e-03 3.936309058184894001e-04 -1.192115373329628858e-02 -5.068938519460466224e-03 3.677586430397790807e-03 -1.118632484005273840e-02 8.071220816319835773e-04 7.992533047674011890e-03 -2.091722519613355147e-02 6.877096666092454708e-03 5.662050736213513832e-03 -9.299971346247243526e-04 1.733000203433290344e-03 -3.706244042123197377e-05 4.580543234057138325e-04 -1.972019810348677252e-03 -1.371953390025222163e-03 1.229969605793227675e-03 3.722010633976115083e-03 8.179973162508370364e-04 6.398823559198518155e-05 1.090040756157082633e-04 2.910010604877404550e-04 -4.999309283738463272e-06 4.999977706521440053e-05 -1.600091247755536713e-05 1.399862258195203006e-05 1.130004994272951966e-04 3.599896797117829912e-05 1.270056672435143955e-04 2.169979865352380459e-04 -1.349979049010847909e-04 -1.429938438824674362e-04 2.169980278106558083e-04 -1.470088995197310936e-04 -9.007065929285472221e-06 -1.829975827093743607e-04 1.700022278850227449e-04 -6.099600379708975523e-05 5.899867251066740034e-05 -9.700332036979162828e-05 -6.800335234824969057e-05 3.500122999722534535e-05 8.299673468324604607e-05 1.210043163086837900e-04 -1.597588843369087262e-09 -1.059950726784774576e-04 -3.179245742726087565e-02 1.151953547601396177e-02 3.601154209628714548e-02 -2.610865718767037182e-03 -1.189696862419938701e-03 2.123691057037523089e-02 -3.316825530749661910e-02 -1.399888894722226516e-02 5.999847839742421425e-03 -1.007587168765311514e-02 2.793114636124619204e-04 2.141158576192443361e-02 -2.951913155478269601e-03 -1.913680276702798763e-03 2.238790694819578486e-02 -2.958812367194097511e-03 1.937285687503281914e-03 1.998685206681467819e-02 -6.238422124211618182e-04 1.112294024769702782e-03 2.070395884599037298e-02 -1.668825660362424764e-03 5.642889309152641746e-04 2.028692406250297980e-02 1.043160787201063673e-03 1.512291783740292526e-03 2.063802105660515057e-02 -2.353908320140084189e-03 2.043181489839428222e-04 2.230990127083423355e-02 2.329078970265196797e-03 1.513188915126455843e-04 2.262109271771237107e-02 1.612495478116828847e-05 4.743047808859991916e-04 2.149799395201007837e-02 -8.038786431603166206e-04 -1.686934994798835389e-04 2.157396967714342306e-02 -7.174092227510348366e-05 -4.061743084879180544e-03 1.811705468205324077e-02 8.651323391121887524e-04 -1.826986343038044863e-04 2.130403783898361658e-02 6.819898567484389631e-05 1.410279220044185740e-03 1.969798280078101024e-02 5.441462061292932310e-04 -7.267033593133695154e-04 2.095303248062002285e-02 -5.708552518190234196e-04 -6.657019617003766569e-04 2.098998621199306414e-02 1.114123589428923901e-05 1.012990144758698507e-04 2.109099903708994139e-02 -3.585979700060681126e-05 3.029939155093550979e-05 2.111499812980883670e-02 -8.086424579624433724e-05 -1.386990703508918276e-04 2.122099869331402558e-02 1.851394103143718523e-04 6.299487889316422712e-06 2.113400746936559479e-02 -8.386181818984386803e-05 -1.066999044950557742e-04 2.116199811751788562e-02 -2.168584530627650148e-04 3.029906540599274794e-05 2.108199075936546124e-02 -2.867131555563942944e-06 -1.316981248018268846e-04 2.129200177023006513e-02 -3.785742899658340157e-05 -1.177014717136692413e-04 2.105400014673283401e-02 -1.386040712282425422e-05 -1.247004555258098034e-04 2.112700122320974178e-02 1.042862820452609149e-03 -6.830124335888593549e-05 -2.118995658508703028e-02 -6.621555396639797284e-04 -7.912937125809796704e-04 -2.075301576402143258e-02 -6.731075516837304283e-04 8.956900481084228288e-04 -2.189904012877244219e-02 -2.561514628905169674e-04 -1.092952640143689909e-04 -2.084000890050968779e-02 -1.891121131190172876e-04 2.716910869807260729e-04 -2.179901157304905968e-02 -3.781283019343203012e-04 8.669682103702277729e-05 -2.140501664676994209e-02 1.178175549832716603e-04 8.867155017250438320e-04 -2.006000779268887063e-02 2.778613050131380799e-04 -8.030011978718848301e-05 -2.115298756643936920e-02 2.299031609503576670e-04 -9.703148979098054350e-04 -2.219797690185930372e-02 1.331696930628658605e-03 1.707756772559536037e-03 -1.708197000028776474e-02 -6.109459008256177398e-05 1.271427194855136444e-01 -1.978980510967838502e-02 -2.853025700613357287e-04 3.174758265361155539e-03 -1.706605664469790229e-02 -7.611958708609507275e-04 -3.427938645633446448e-05 -1.974803052888688543e-02 4.526078012720027507e-03 -9.025381337860825109e-03 -2.664668775906239850e-02 -7.604983563084034316e-03 -8.006350119054688602e-03 -2.511519619227240915e-02 -3.930184551077476815e-03 -8.405283128349786900e-03 -2.018704089079799424e-02 4.431877031661383450e-03 -8.016311013384881667e-03 -2.169170589679189978e-02 1.722932203273723961e-03 -5.423260623119445425e-04 -2.290292217305598538e-02 8.085864348399554385e-05 4.700984366774608038e-06 -2.108599679361921816e-02 2.785211573132006930e-05 1.447033368321014768e-04 -2.092300093686273732e-02 -2.014163364238026724e-05 1.470116269294578570e-05 -2.107900104820932194e-02 3.285329736514425294e-05 4.170289341584801091e-05 -2.095399927292002432e-02 -1.014608243367216326e-05 -5.029731392856380469e-05 -2.097099971954658262e-02 4.885420880687989161e-05 -9.429747354326419376e-05 -2.097899669318733715e-02 2.584515790438869927e-05 4.770573445528888208e-05 -2.075399964321848409e-02 1.848484397055117636e-04 2.670446155959270779e-05 -2.083499287079482523e-02 -3.144088635501744688e-06 5.170201422379826700e-05 -2.101800088058880522e-02
1.614539155509186197e-01 9.579031994565765469e-04 2.095560960056851076e-03 -5.931104949149733178e-03 1.590041619480217928e-03 2.607735939563721878e-03 -4.644092076104023963e-03 9.103572057588128319e-05 2.262809600087257404e-03 -6.651029429585587731e-04 2.337036999924317193e-03 2.572939784808928130e-03 -1.124182254550158341e-03 -4.818936978149433205e-03 4.383022548331063153e-03 6.528417553488268139e-04 -1.198945742352128642e-03 3.863043586263137895e-03 -1.701106282000907407e-03 3.947039413036904434e-03 2.685874771702944155e-03 1.241852446909516659e-03 1.429050790505585755e-03 3.651030311879128847e-03 -6.761701004970878913e-04 -4.741941539744695504e-03 4.086039699860668194e-03 -9.721348469266784600e-04 2.330477746181989097e-04 3.315957112831278628e-03 2.987647932905619644e-05 1.125043289561537124e-03 3.054985268801709702e-03 9.928650159602811671e-04 2.160462785658523899e-04 3.319037370322912902e-03 2.587409280819263257e-05 2.100438740753740726e-04 3.095998078533764106e-03 1.011859768800066513e-03 -6.599521483096830021e-04 3.431050563635766257e-03 -1.155140496426313498e-03 -6.369503523147642277e-04 3.437961995456329575e-03 2.078976815273975241e-04 -2.949646191004854940e-04 2.507012650046751973e-03 -1.681019336509976961e-04 -2.719644522964077653e-04 2.497997012926538377e-03 3.287491397157263671e-05 -4.049565850330515615e-04 3.064007082934001348e-03 -4.712479209703637696e-05 2.204349174138974310e-05 3.064997771359982259e-03 4.387433234191863402e-05 4.804373239761645210e-05 3.087001108315132279e-03 5.387445838903077983e-05 1.043667861211575963e-06 3.083002181882244560e-03 2.387110059919342694e-05 1.850449106229481804e-04 3.168998351468288194e-03 3.787460093773187817e-05 2.704363785314288146e-05 3.080001161729565683e-03 1.087286406832795782e-05 4.504426863742510770e-05 3.122999807026870245e-03 3.487066901594785493e-05 -1.954998726590247452e-06 3.176001450632911539e-03 -1.881284098662640552e-04 3.004486396682856599e-05 3.153991916215132928e-03 2.887442946750939154e-05 6.804371578495183048e-05 3.085000213948955409e-03 1.430140157844046422e-07 1.589502501000414130e-04 -3.509002251002430427e-03 -1.878743564633004570e-04 2.495640870206149549e-05 -3.085008007096285559e-03 5.910843009517123298e-05 -1.160378300097220452e-04 -2.664995950371841851e-03 3.201276305758087113e-04 -3.704469794350356219e-05 -3.134986441836103491e-03 6.812945548680837031e-05 1.609549180619571757e-04 -3.175999510649637689e-03 2.512582646642010561e-05 -2.610438998252413104e-04 -3.094995278705350156e-03 -1.388830997809038543e-04 -6.404060978536555652e-05 -2.872004750151636605e-03 -1.188668749059584553e-04 -9.304628238271507406e-05 -3.271003524208563901e-03 -3.398731746742791405e-04 -2.604389761124231381e-05 -3.115013473571830432e-03 -1.578800370147253468e-02 -1.474733853622226670e-02 -2.475043383903286973e-02 1.341382058128948521e-02 -1.763530101775441852e-02 -2.049020376731682663e-02 -2.393054886405093784e-03 -2.905979808285631509e-03 1.291943754382872400e-03 4.269131685564133034e-03 -1.094049491224209029e-03 -3.254810649187507478e-03 -3.972260930995148405e-04 -3.890958341176128932e-02 2.936153550402553075e-02 -2.079916522844429874e-03 -1.510027846852330605e-03 -2.079063289014852333e-03 6.911600699096144638e-05 -4.010041537851713467e-03 -2.925940334709764817e-03 1.109118502952406151e-03 -1.707042593422405594e-03 -2.942930636398064740e-03 -2.161873566283018227e-03 -1.671042782737909398e-03 -3.137064344521210343e-03 -1.869372245025593796e-06 -6.045480800928029405e-06 -3.207999993392969887e-03 -3.887103236589640879e-05 5.955129458329894645e-06 -3.167001670235736286e-03 5.121980068171254344e-06 2.695753358518446598e-05 -2.995000176411210559e-03 -3.875029305834427467e-06 -2.043508521783475719e-06 -3.069000131674940162e-03 -3.488226975391017716e-05 7.959039397663895981e-06 -2.891001535964427601e-03 -3.587330960113129907e-05 9.955921065478523125e-06 -3.111001604836294288e-03 -1.787186560587773239e-05 -1.804460342626264071e-05 -3.147000474850131495e-03 9.124899403177362910e-06 -4.104350451900649433e-05 -3.067999049372029975e-03 -3.087353514953600035e-05 -1.804401195770272354e-05 -3.106001004259309212e-03 -2.799318784289258857e-05 1.499765423055453784e-05 -1.670013526950403374e-04 1.099108682835502769e-05 6.003096323621961540e-06 2.190003626591994481e-04 8.099733586458246731e-05 3.000087230878099837e-05 6.600287299468294113e-05 1.499010793274886292e-05 -4.799658071362549437e-05 2.420012911204503538e-04 -5.800351210560978976e-05 3.900127887804199871e-05 8.699708517698495245e-05 -1.499392550525460138e-05 6.099791342507908317e-05 -1.480014755187576789e-04 6.599727473331014251e-05 -9.999913011096653195e-05 6.500410529209651013e-05 -6.200029674805958583e-05 -1.499985220815861837e-05 6.997687967175588248e-06 -1.070031863731930476e-04 -1.169988386951687685e-04 7.599730159660670877e-05 -2.643332564010556548e-03 -1.213623362020483341e-02 -1.662393558913927150e-02 -3.186052284848820294e-03 -2.392979953022345441e-03 1.237904189605476676e-03 -9.312013414198414343e-03 -1.018988313520506400e-03 3.096352542871995319e-04 -1.180614180453626663e-02 -5.071942763598762637e-03 3.384591156101332109e-03 -1.111031645554059685e-02 8.021191014989350254e-04 7.786536213539010411e-03 -2.074821792215623614e-02 6.806093981770097549e-03 5.482058624825886066e-03 -9.089899145162839023e-04 1.748997677518978602e-03 -2.140618119630350929e-04 4.680569561726791259e-04 -1.938020725560970180e-03 -1.435953464801174775e-03 1.194971502463120340e-03 3.700009995026816347e-03 7.709962029755353888e-04 3.598855743907971336e-05 5.200396994518861665e-05 2.820007284447931706e-04 3.600123805038516611e-05 2.099954647616044911e-05 -2.999883175450466014e-05 5.000001587981292247e-06 5.400001025737076319e-05 9.994380040987559092e-07 1.080059656259023789e-04 2.339979021658836948e-04 -1.419989196127277695e-04 -1.089934092771948628e-04 2.519978594073044964e-04 -1.570080112232184928e-04 -2.300652714387187788e-05 -1.709977560599776347e-04 1.570014876720302640e-04 -6.299477198377527237e-05 7.199824874148827393e-05 -1.270035860945309977e-04 -5.100059350670273412e-05 7.400026677006970807e-05 1.599687406722290450e-05 1.030067000723913025e-04 2.799759419013364965e-05 -1.639962025772579400e-04 -3.147344658716270255e-02 1.153053145494351180e-02 3.574555493053052646e-02 -2.678857381099909642e-03 -1.150699701450385659e-03 2.103290724861421601e-02 -3.292725579392091068e-02 -1.383988892327343671e-02 6.014855399189204636e-03 -9.909864796590934707e-03 2.393089234139207200e-04 2.124159308885428810e-02 -2.974904570464075287e-03 -2.026683278552908214e-03 2.217490761390148238e-02 -2.972806642024069038e-03 1.864283685225645972e-03 1.984485253183149861e-02 -5.668367346944105933e-04 1.191292094484174653e-03 2.057096004715920981e-02 -1.716822182621150850e-03 5.332877492118035098e-04 2.020092254749273827e-02 1.041164317378627741e-03 1.496290551839701052e-03 2.055102120208853952e-02 -2.391902004510460585e-03 1.053159528339050560e-04 2.215290112718642027e-02 2.366086837167384778e-03 1.093161120537214126e-04 2.242709482003027097e-02 1.513267212728136082e-05 3.973020737178434465e-04 2.130699500315456907e-02 -8.398746344659470137e-04 -1.456948607182861725e-04 2.147596788519532188e-02 -1.773508195119010564e-05 -3.935745126242822661e-03 1.797605509471207619e-02 8.361380400788243159e-04 -1.307005823157136664e-04 2.116503592096444925e-02 1.620406406937182671e-05 1.395277488537077651e-03 1.957298089607940189e-02 6.011526705341053252e-04 -6.877056440397494178e-04 2.079503424892263988e-02 -5.928471029313332405e-04 -6.597047800341388412e-04 2.078998523125367634e-02 -6.684970131588521749e-05 7.829591390352267819e-05 2.086799618715941620e-02 -5.851165774553378191e-06 2.829636236863544889e-05 2.090299937998697441e-02 -3.185425982820031362e-05 -1.267025822787771908e-04 2.097600051873032070e-02 1.521512139003309606e-04 -7.045978317600848726e-07 2.084400622509143680e-02 -8.685350876029157574e-05 -5.170278024407065420e-05 2.095899721576705010e-02 -1.818482164894814229e-04 5.029547937247489406e-05 2.083099190127330955e-02 -9.856133030068950308e-06 -1.787019614986590883e-04 2.102100215179091361e-02 -1.847098470254714902e-06 -1.337051010599401147e-04 2.080000183976380562e-02 -1.685094969899807879e-05 -1.117037424266561341e-04 2.089500091695193143e-02 1.132849798353449330e-03 -5.296762762579499355e-06 -2.086895381370793001e-02 -6.741741764780029332e-04 -7.742872097564631973e-04 -2.029501649411937989e-02 -7.341250451392988428e-04 9.166961923210775135e-04 -2.146904291087712094e-02 -1.931644184384807058e-04 -1.172908048033948088e-04 -2.052200622196957008e-02 -2.041265150131536549e-04 1.846960893184068728e-04 -2.144701095072362382e-02 -4.141416482034928660e-04 -4.298528804653360023e-06 -2.107901682284715403e-02 1.938048962489894421e-04 9.457198656835413744e-04 -1.974800553468226624e-02 2.098440253540310139e-04 -4.629404098384809111e-05 -2.072799081789628017e-02 2.058897371973822746e-04 -9.523102004472424036e-04 -2.186797813466623969e-02 1.281683981393042611e-03 1.603761291903162871e-03 -1.676597056213667558e-02 -2.710519350040987738e-05 1.264987229750499376e-01 -1.954179459492031562e-02 -2.753151583191889109e-04 3.115762624298113858e-03 -1.675805540128766022e-02 -8.352083008172526621e-04 4.725009886830576096e-06 -1.944203409544709854e-02 4.575062517678641673e-03 -8.896375946145018004e-03 -2.626368759302821418e-02 -7.544998730800674992e-03 -7.875344849374403544e-03 -2.474019560665696033e-02 -3.983198194082069286e-03 -8.407278337289342957e-03 -1.985204302095899473e-02 4.452864133349119027e-03 -7.951306521295426963e-03 -2.137370596350426574e-02 1.733915370669779311e-03 -5.613202154935017585e-04 -2.248992145613304058e-02 2.385618774369485805e-05 -1.129812033310972745e-05 -2.102599888791929078e-02 2.585044617853840239e-05 1.447039196877036654e-04 -2.088200101834255390e-02 4.285714232944671728e-05 1.170153869835129261e-05 -2.104899844029029660e-02 2.685015167898444484e-05 2.870398980537846716e-05 -2.087699933300578639e-02 -8.147239832486679901e-06 -2.029690434151492232e-05 -2.094200006346473922e-02 6.785201772647686210e-05 -3.229670864769649657e-05 -2.092399679856362868e-02 -1.515531898306504569e-05 1.070592251761029286e-05 -2.074300078820635884e-02 1.948469079517857613e-04 -5.295021688714446905e-06 -2.079799200993227848e-02 3.585383927075199334e-05 5.770270675390684032e-05 -2.096699937758960200e-02