-1.412880976370000099e+03
-1.412880977519999988e+03
-1.412880979629999956e+03
-1.412880982979999999e+03
-1.412880987439999899e+03
