-9.961661682804295026e-07 -4.805599996400204688e-02 3.611400004800752878e-02 3.590000044303007969e-04 -2.089999749074222021e-04 -2.061000001772863004e-03 1.999922623655549837e-06 1.086000001012289370e-03 8.619999989041804119e-04 -3.589999955641773040e-04 -2.090000292089483141e-04 -2.059999997809606933e-03 -4.161400161780746260e-02 2.402699688879882459e-02 3.611700020570326325e-02 4.161299838224032099e-02 2.402600318327328260e-02 3.611199974630324716e-02 1.470000471177324540e-04 -4.989999871852588559e-04 1.698999999687020529e-03 -1.459999530224874605e-04 -4.970000093429266519e-04 1.701000001302340652e-03 3.569999810980367845e-04 3.740000286980916296e-04 1.699999997655831643e-03 -4.259515883256631129e-11 4.129999979443101901e-04 -2.058000000412535824e-03 -3.590000192044821869e-04 3.779999745468271455e-04 1.700000001604052733e-03 9.999950470419803165e-07 -1.000000834346590016e-06 -9.110000000045210405e-04 5.049999998653800608e-04 1.260000398933682310e-04 1.701999997086614492e-03 -9.449999542392424970e-04 -5.420000706075622787e-04 8.640000057576544120e-04 9.430000457552322217e-04 -5.419999278186346785e-04 8.629999953361673637e-04 -5.040000002157671820e-04 1.269999635814393656e-04 1.701000002655149793e-03 -1.001267093271352519e-06 -3.000229410772977965e-06 -2.295929999999914706e-01 5.674000047214355913e-03 8.360004491116083004e-04 2.000799996784528162e-02 1.000190212240010848e-06 -1.166999981475110113e-03 1.847000000116016949e-02 -5.673999952883321610e-03 8.369995908554490405e-04 2.000400003048360270e-02 -3.566000229743621856e-03 4.497999750288017400e-03 2.000800001519086047e-02 3.560999770346899573e-03 4.496000289293875310e-03 1.999699997585284786e-02 -5.599988869681157898e-05 -3.299998454543300085e-05 1.971200000034207395e-02 5.900011116296728360e-05 -3.099997584595562259e-05 1.971399999970529365e-02 1.007000057800215651e-03 5.840000946119206122e-04 1.847299999385816280e-02 -3.999826882010691371e-06 -8.549999806765852441e-04 1.964800000087611742e-02 -1.008999942600009338e-03 5.889999421373257179e-04 1.846900000498119532e-02 3.000103470760585577e-06 7.100001992274516667e-05 1.971799999991252078e-02 2.110000513793984251e-03 -5.332999820431615599e-03 2.001099999368011542e-02 -7.429999238179194531e-04 4.269999634366460637e-04 1.965200000367472999e-02 7.440000763443765453e-04 4.250000759008369156e-04 1.965399999546870585e-02 -2.107999485995672249e-03 -5.336000139443038311e-03 2.000800001696586075e-02 2.594200129532486451e-02 -1.498299800865580608e-02 2.937699987177007713e-02 8.779998560321998448e-04 4.060000459074100372e-04 -2.051900000525197498e-02 -8.770001445137664718e-04 4.129999131733112674e-04 -2.052199999557162077e-02 -2.594499870498302371e-02 -1.497900193288398407e-02 2.937600015817481980e-02 -3.002103450805072249e-06 2.995600002911203569e-02 2.937199997009421609e-02 -3.826999950774495358e-03 -2.208000310748027897e-03 -2.133499997666999520e-02 3.999899372706400353e-06 -9.400001919355791100e-05 -1.951799999992818654e-02 3.825000049149852432e-03 -2.206999732025296569e-03 -2.133500001890892631e-02 -8.000001552367038467e-04 5.549999189998373059e-04 -2.051899999613849071e-02 7.949998445253612196e-04 5.580000396281005080e-04 -2.052100000494565951e-02 -7.900011163067197355e-05 5.199997453612240826e-05 -1.951099999961587381e-02 8.299988866080886267e-05 4.799998678622641326e-05 -1.951300000050609426e-02 8.099995986150614318e-05 -9.670000143718990478e-04 -2.052099999948119730e-02 -5.000113023488253625e-06 3.999979223783647297e-06 -2.042099999997639900e-02 -7.900004038194374280e-05 -9.640000264757369805e-04 -2.052399999860101548e-02 1.999548060767646834e-06 4.417999978833217316e-03 -2.134200000442407555e-02
3.831485533862414935e-09 -4.802599996394040643e-02 3.610000004797204315e-02 3.590000043066395702e-04 -2.069999749024278033e-04 -2.056000001774860742e-03 -7.752208510418957864e-11 1.088000000862027672e-03 8.629999989132224655e-04 -3.589999956933583665e-04 -2.070000292049527907e-04 -2.055999997811604370e-03 -4.159200161684799280e-02 2.401299689044471275e-02 3.609900020559581035e-02 4.159299838315728276e-02 2.401300318174869400e-02 3.609999974642662951e-02 1.460000469664719423e-04 -4.969999872608891730e-04 1.698999999690542669e-03 -1.459999530335271865e-04 -4.970000093449244028e-04 1.699000001302340603e-03 3.579999810168866614e-04 3.750000287727230357e-04 1.698999997649313070e-03 -4.273537963704781796e-11 4.149999979463079355e-04 -2.056000000414533960e-03 -3.580000189831112267e-04 3.749999746214585628e-04 1.699000001601529662e-03 -5.023068419058388137e-12 -9.089779735590538695e-13 -9.100000000000000016e-04 5.040000001513415036e-04 1.220000398147413450e-04 1.698999997096129920e-03 -9.419999540990217982e-04 -5.440000703826693065e-04 8.620000057430926609e-04 9.420000459064927119e-04 -5.439999278942649844e-04 8.629999953436850047e-04 -5.039999998486556759e-04 1.219999635794416422e-04 1.699000002660144230e-03 -1.266841582426179206e-09 -1.000229262224712574e-06 -2.295199999999990026e-01 5.673000047007895931e-03 8.380004490259892287e-04 1.999799996784880005e-02 1.900057809445657020e-10 -1.164999981560729076e-03 1.846000000116369139e-02 -5.671999952992071159e-03 8.379995910007163266e-04 1.999800003047156119e-02 -3.562000229426188613e-03 4.492999750579550026e-03 1.999700001517377285e-02 3.561999770579310585e-03 4.493000289370504587e-03 1.999799997585031963e-02 -5.799988864878059043e-05 -3.399998470168789667e-05 1.970700000035411140e-02 5.900011134017935620e-05 -3.399997585494550013e-05 1.970499999970828919e-02 1.008000057879717944e-03 5.820000946745655483e-04 1.845999999385463872e-02 1.732896815148962211e-10 -8.579999803840531510e-04 1.963800000085703587e-02 -1.007999942120276415e-03 5.819999422039661427e-04 1.846000000498266777e-02 1.037125632150418040e-10 6.700001968486676244e-05 1.970699999993307319e-02 2.111000513641076316e-03 -5.331999820369969466e-03 1.999699999367359621e-02 -7.419999239708277138e-04 4.279999634982920346e-04 1.963800000366821424e-02 7.430000759535376840e-04 4.290000758092246398e-04 1.963799999547023029e-02 -2.109999486364431357e-03 -5.332000139606285667e-03 1.999600001697290561e-02 2.593700129464806756e-02 -1.497499800904694527e-02 2.936399987178968385e-02 8.759998557037273039e-04 4.110000457651394150e-04 -2.051000000524593261e-02 -8.760001442907479037e-04 4.109999132619269113e-04 -2.050899999557514314e-02 -2.593699870542741370e-02 -1.497400193229092916e-02 2.936400015812567002e-02 -2.103041182378199364e-09 2.995000002933093444e-02 2.936399997008365056e-02 -3.816999951108488148e-03 -2.203000309983734525e-03 -2.132699997673018558e-02 -1.004799052090222482e-10 -9.500001948309355626e-05 -1.950499999990510866e-02 3.816000048891490196e-03 -2.202999732697978000e-03 -2.132700001886324304e-02 -7.940001551058749763e-04 5.539999194636075798e-04 -2.050899999617061126e-02 7.929998449642308147e-04 5.530000394878276104e-04 -2.051000000492962314e-02 -8.300011130055165898e-05 4.799997423859578126e-05 -1.950599999958979591e-02 8.299988870496771243e-05 4.799998679421743050e-05 -1.950500000050609667e-02 8.199995969533376667e-05 -9.640000142852811959e-04 -2.050999999948971073e-02 -1.126657686828579619e-10 -2.038807628386137140e-11 -2.041099999999999859e-02 -8.300004028810618265e-05 -9.640000267612771267e-04 -2.050699999857893627e-02 -1.000451089092225498e-06 4.407999978623307509e-03 -2.132500000439752769e-02
3.826712012339228693e-09 -4.796499996396937082e-02 3.607100004791111147e-02 3.600000043822698518e-04 -2.079999748267975432e-04 -2.056000001779381865e-03 -2.000077435415129696e-06 1.087000000712764992e-03 8.649999989252609529e-04 -3.589999955365780161e-04 -2.090000292039539368e-04 -2.054999997809606703e-03 -4.154000161473364594e-02 2.398299689434951754e-02 3.607100020533873797e-02 4.153899838534174521e-02 2.398200317763568915e-02 3.607099974675566367e-02 1.480000471177324512e-04 -4.989999871096285986e-04 1.698999999681500639e-03 -1.489999528822666636e-04 -4.990000095718151148e-04 1.699000001320897808e-03 3.579999808010355614e-04 3.780000287747207512e-04 1.700999997646316384e-03 -1.000042735379634101e-06 4.149999978706776782e-04 -2.056000000409014070e-03 -3.570000191398916612e-04 3.769999746960898848e-04 1.698000001594012105e-03 -5.093178821299140667e-12 9.999990920209003753e-07 -9.090000000009988528e-04 5.040000002214519792e-04 1.210000398137424588e-04 1.697999997097128771e-03 -9.419999540824622363e-04 -5.440000703796726801e-04 8.650000057430926254e-04 9.430000458474220408e-04 -5.429999278156380765e-04 8.659999953371662037e-04 -5.059999998486557245e-04 1.219999634281811277e-04 1.699000002671184010e-03 -1.266278557174812275e-09 -1.000229160339269386e-06 -2.294179999999990116e-01 5.670000046904665608e-03 8.390004487941041039e-04 1.999299996786436245e-02 1.899025514098915850e-10 -1.163999981565723863e-03 1.845500000116269065e-02 -5.668999953170931159e-03 8.399995912226127697e-04 1.999300003045300506e-02 -3.561000229215857595e-03 4.489999750652184235e-03 1.999400001517125103e-02 3.561999770773082233e-03 4.490000289364511586e-03 1.999199997585331817e-02 -5.899988869293943061e-05 -3.399998478530917118e-05 1.969900000035963369e-02 5.900011136613091426e-05 -3.499997586393539003e-05 1.969599999970928980e-02 1.008000057782008343e-03 5.830000946705699624e-04 1.845599999385364245e-02 1.733211529292980706e-10 -8.589999803920440706e-04 1.963000000085803748e-02 -1.006999942153395623e-03 5.819999422736031472e-04 1.845400000497714882e-02 1.035281835673158339e-10 6.900001967887347697e-05 1.970099999993107573e-02 2.108000513305436415e-03 -5.327999820602853827e-03 1.999099999368615654e-02 -7.439999241496875106e-04 4.299999633420371371e-04 1.963300000367725756e-02 7.440000759038590226e-04 4.290000758758650179e-04 1.962899999546471180e-02 -2.106999486532251144e-03 -5.330000139382390714e-03 1.999300001695434800e-02 2.592800129412804397e-02 -1.496899800973960047e-02 2.935199987183336953e-02 8.759998559212260659e-04 4.090000457771259261e-04 -2.049800000524393262e-02 -8.770001440842887293e-04 4.089999131962854142e-04 -2.049899999556762872e-02 -2.592499870595847342e-02 -1.496800193139734975e-02 2.935000015805343601e-02 -1.002101989526341637e-06 2.993500002924032177e-02 2.934899997010415387e-02 -3.799999951662203553e-03 -2.194000308675046230e-03 -2.130399997683301433e-02 -1.003435565419147868e-10 -9.600001947210590983e-05 -1.949399999990410887e-02 3.800000048267664163e-03 -2.192999733884089079e-03 -2.130300001878491362e-02 -7.930001550451565946e-04 5.539999195502255756e-04 -2.049799999617613055e-02 7.919998447980584845e-04 5.560000394231849477e-04 -2.049900000492710025e-02 -8.300011132098335405e-05 4.899997424858455340e-05 -1.949599999959079552e-02 8.299988884683623077e-05 4.699998680620395239e-05 -1.949300000050509588e-02 8.399995975605215916e-05 -9.640000141230330513e-04 -2.049899999950074991e-02 -1.126050502733968392e-10 -2.037708863802714506e-11 -2.040000000000000147e-02 -8.400004031405773793e-05 -9.630000268279174805e-04 -2.049799999857441352e-02 -1.000449449530398163e-06 4.387999978646282134e-03 -2.130200000437755189e-02
3.819933465129399678e-09 -4.787799996400533137e-02 3.603500004782420746e-02 3.590000045556097398e-04 -2.099999748984322930e-04 -2.052000001771863910e-03 9.999227048056656958e-07 1.085000000937657964e-03 8.629999989106992017e-04 -3.609999956712789631e-04 -2.070000293522177763e-04 -2.051999997800564926e-03 -4.146700161168577481e-02 2.393999689983356688e-02 3.603400020497873890e-02 4.146499838822179096e-02 2.394100317199909789e-02 3.603099974720509052e-02 1.510000468152114409e-04 -4.949999868827378380e-04 1.698999999660945684e-03 -1.499999530335271753e-04 -4.970000096474454319e-04 1.699000001324419947e-03 3.529999807899959307e-04 3.780000283945717139e-04 1.698999997673915786e-03 1.999957070848716672e-06 4.179999981035617215e-04 -2.050000000428570113e-03 -3.550000191288519408e-04 3.769999748493481503e-04 1.700000001582972157e-03 -2.000005017548557810e-06 -1.059239611946628304e-12 -9.089999999889603055e-04 5.050000002970822608e-04 1.200000398893727189e-04 1.697999997092607865e-03 -9.389999542447623497e-04 -5.420000701547796106e-04 8.630000057245353724e-04 9.380000459009728330e-04 -5.439999281977848889e-04 8.619999953657644324e-04 -5.019999994760241226e-04 1.169999637297032817e-04 1.698000002654099019e-03 9.987344059048925386e-07 -1.000228960848277229e-06 -2.292940000000045220e-01 5.661000046714767704e-03 8.410004481064396005e-04 1.998599996791204300e-02 1.000189874952129914e-06 -1.163999981495087875e-03 1.845000000115717270e-02 -5.662999953285199201e-03 8.409995916694021009e-04 1.998600003041888645e-02 -3.559000228736124323e-03 4.482999750794454917e-03 1.998500001516720012e-02 3.559999771274894535e-03 4.483000289208257175e-03 1.998699997587135083e-02 -5.799988879616897177e-05 -3.299998471467330079e-05 1.969400000035311307e-02 5.700011118727113779e-05 -3.299997602019030102e-05 1.969099999971832965e-02 1.008000057667739072e-03 5.840000946635778584e-04 1.844899999385264319e-02 1.730666628793313536e-10 -8.559999803970384834e-04 1.962500000085503835e-02 -1.007999942110884405e-03 5.809999421919796129e-04 1.844800000498366538e-02 1.000103721955204786e-06 6.600001974851050341e-05 1.969499999992855438e-02 2.103000512986355486e-03 -5.323999820984000667e-03 1.998799999370975966e-02 -7.419999239559159224e-04 4.269999634873044344e-04 1.962700000366921285e-02 7.420000759463702160e-04 4.280000757186112263e-04 1.962299999547674825e-02 -2.101999487030192012e-03 -5.324000139012231153e-03 1.998500001692075229e-02 2.591900129380731929e-02 -1.496599801043725468e-02 2.933499987188005129e-02 8.779998561000858627e-04 4.070000459333808236e-04 -2.049300000525297594e-02 -8.780001440622093017e-04 4.089999131246506588e-04 -2.049499999556210830e-02 -2.591899870635483091e-02 -1.496400193096054931e-02 2.933300015801632368e-02 -2.101618542629793425e-09 2.992900002930096864e-02 2.933399997010462459e-02 -3.775999952658661094e-03 -2.179000306834948022e-03 -2.127899997698047205e-02 -1.003971073779388615e-10 -9.500001946811039723e-05 -1.948999999990510754e-02 3.774000047498097480e-03 -2.180999735825504132e-03 -2.127800001865338270e-02 -7.910001552389281940e-04 5.569999197074791989e-04 -2.049199999619016888e-02 7.909998448902483877e-04 5.550000393505514010e-04 -2.049600000492058163e-02 -8.200011114764344455e-05 4.699997432821031133e-05 -1.949199999959431648e-02 7.999988871765516306e-05 4.899998658330868362e-05 -1.948900000049053408e-02 8.599995969146162229e-05 -9.630000139697747616e-04 -2.049699999951279036e-02 -2.000112577450990317e-06 -2.052335476883863466e-11 -2.039499999998896015e-02 -8.600004027541875912e-05 -9.630000269721858668e-04 -2.049099999856337367e-02 9.995527840337732826e-07 4.359999978818518244e-03 -2.128100000436062428e-02
2.003809965759663855e-06 -4.774999996390601187e-02 3.598300004768531513e-02 3.570000042530887163e-04 -2.059999750496927916e-04 -2.052000001764820065e-03 -1.000076965074020669e-06 1.081000000791391838e-03 8.679999989257343885e-04 -3.619999961416200929e-04 -2.010000294308447310e-04 -2.054999997801038036e-03 -4.135900160713247564e-02 2.387599690794969809e-02 3.598200020444652925e-02 4.135099839227328322e-02 2.388400316333029808e-02 3.598399974789129319e-02 1.550000466308317643e-04 -4.929999865862100131e-04 1.692999999636868660e-03 -1.519999530390470327e-04 -4.970000097997048219e-04 1.698000001335459811e-03 3.579999809357365141e-04 3.760000287717240762e-04 1.697999997648314170e-03 -4.245881016545885635e-11 4.119999979552977959e-04 -2.047000000411537332e-03 -3.590000186695505502e-04 3.709999745478260677e-04 1.701000001611044886e-03 -1.100000514672962355e-05 1.999998264083571200e-06 -9.049999999412793820e-04 5.030000002639630884e-04 1.200000397321189516e-04 1.691999997103647499e-03 -9.359999549364744808e-04 -5.330000699298866962e-04 8.610000056989858827e-04 9.330000458308624527e-04 -5.429999285749372755e-04 8.629999953923648149e-04 -5.009999994611124153e-04 1.159999637943458982e-04 1.687000002649577737e-03 -4.001264707622791250e-06 9.997708487892848522e-07 -2.291059999999789099e-01 5.649000046454757951e-03 8.440004471928833334e-04 1.997999996797528502e-02 -1.999810051065321525e-06 -1.165999981735962518e-03 1.843600000117573065e-02 -5.649999953193009933e-03 8.399995926555921559e-04 1.998900003034812661e-02 -3.553000227893152001e-03 4.471999751250234703e-03 1.998700001514507052e-02 3.552999772058796930e-03 4.473000288683839400e-03 1.999199997591997666e-02 -5.899988853228692667e-05 -3.699998479729568187e-05 1.968700000036262970e-02 6.200011135344347718e-05 -3.599997565302664993e-05 1.967999999969372721e-02 1.013000057509311127e-03 5.850000950267460371e-04 1.843399999382404342e-02 1.000173778806609711e-06 -8.659999803293992561e-04 1.961700000085950593e-02 -1.006999942095972590e-03 5.799999422566222158e-04 1.843700000497914410e-02 -5.999896873694843915e-06 7.300001920711215032e-05 1.968299999996020108e-02 2.094000512364753864e-03 -5.315999821667670606e-03 1.998499999375144900e-02 -7.499999241088240766e-04 4.279999628682780357e-04 1.961300000371237265e-02 7.500000755240600033e-04 4.330000763156622396e-04 1.961499999542759554e-02 -2.093999487716384240e-03 -5.315000138408188836e-03 1.998400001686760283e-02 2.589400129250726823e-02 -1.495099801235797755e-02 2.930499987200306522e-02 8.729998561828836590e-04 4.070000455702127234e-04 -2.047800000522537536e-02 -8.710001435090704335e-04 4.029999136720422890e-04 -2.047699999559475167e-02 -2.589799870734131940e-02 -1.495300192940027945e-02 2.930500015788941801e-02 -2.100055682076905836e-09 2.990600002926900244e-02 2.930199997012760196e-02 -3.747999953859929966e-03 -2.161000304688333751e-03 -2.124999997715300987e-02 -2.000100779130797653e-06 -8.900001960638552045e-05 -1.947699999990006037e-02 3.751000046394538812e-03 -2.163999737532036963e-03 -2.124500001854340986e-02 -7.860001547078687180e-04 5.509999200996148127e-04 -2.047799999621177300e-02 7.869998452109766519e-04 5.520000390650111818e-04 -2.047900000489550829e-02 -8.000011061106407004e-05 4.099997449445400846e-05 -1.947699999959936687e-02 7.499988904942318313e-05 4.599998622413606656e-05 -1.947000000045993884e-02 8.799995956392822974e-05 -9.600000138005345242e-04 -2.047899999952682709e-02 -1.124521420400727056e-10 -1.000020363104358506e-06 -2.038599999999900214e-02 -8.700004065192231285e-05 -9.570000270338318302e-04 -2.047699999856384540e-02 -2.000444753863548787e-06 4.329999978626587927e-03 -2.124600000431409522e-02
4.003792867307258830e-06 -4.753099996385164172e-02 3.588600004745551991e-02 3.690000055940016862e-04 -2.229999741321409023e-04 -2.042000001814077079e-03 -7.000076404190785348e-06 1.073000000329619313e-03 8.599999989668445383e-04 -3.759999950921882991e-04 -2.140000304776817366e-04 -2.042999997710774878e-03 -4.117200159962901285e-02 2.376999692199965528e-02 3.588900020352019105e-02 4.116299839864229204e-02 2.379300314901891880e-02 3.589099974901992229e-02 1.400000464685315657e-04 -4.909999877226616828e-04 1.690999999717668562e-03 -1.539999534282380394e-04 -4.920000099529630742e-04 1.696000001341505057e-03 3.529999820591507424e-04 3.610000283915751080e-04 1.695999997690896596e-03 1.999958136839897209e-06 4.049999981185448085e-04 -2.035000000415584584e-03 -3.370000193518706433e-04 3.789999761977073944e-04 1.687000001481617044e-03 -1.600000596375059385e-05 1.199999787494460776e-05 -9.159999999236688450e-04 5.090000004577345570e-04 1.170000401799072372e-04 1.685999997073524964e-03 -9.369999548498044676e-04 -5.340000700035191184e-04 8.630000057055046969e-04 9.260000441007584836e-04 -5.209999291163356977e-04 8.509999954090284938e-04 -4.999999984282403609e-04 1.029999638789660845e-04 1.696000002657043447e-03 -1.001263143279301359e-06 -1.000228668607451362e-06 -2.288499999999934753e-01 5.656000046145067371e-03 8.470004477073119669e-04 1.996499996793365053e-02 5.000190504298021201e-06 -1.173999981215540682e-03 1.842700000114507949e-02 -5.646999953308927227e-03 8.399995928615065430e-04 1.996800003033156676e-02 -3.560000227771137685e-03 4.468999750701843979e-03 1.996800001518670570e-02 3.555999772623551734e-03 4.464000288889754219e-03 1.997099997591240961e-02 -5.499988891208594722e-05 -3.299998450875894079e-05 1.967300000033655322e-02 5.200011112490501711e-05 -3.399997642331351174e-05 1.966599999974692758e-02 1.005000056605620182e-03 5.960000944087184317e-04 1.842099999385721568e-02 -3.999827930865604679e-06 -8.449999807295259426e-04 1.959500000086613139e-02 -9.869999421252195412e-04 5.789999437502485946e-04 1.841800000486974731e-02 3.000103643029506033e-06 6.500001987180245360e-05 1.966699999991851355e-02 2.094000512541965842e-03 -5.318999821676660342e-03 1.997599999375444801e-02 -7.399999238007831312e-04 4.239999636255794950e-04 1.961400000366116808e-02 7.370000758911716271e-04 4.280000753304711312e-04 1.961299999550434464e-02 -2.088999488199412558e-03 -5.310000138049015411e-03 1.996500001683501266e-02 2.587300129248741240e-02 -1.495299801397717912e-02 2.927399987212098154e-02 8.849998569888648838e-04 3.970000464867657177e-04 -2.046900000528162691e-02 -8.810001430166497938e-04 3.969999129227318613e-04 -2.046999999553356098e-02 -2.587899870812851444e-02 -1.494500192799626953e-02 2.927200015777654818e-02 2.997901318926682884e-06 2.988600002947092160e-02 2.927699997013101865e-02 -3.679999956393296794e-03 -2.124000299497530095e-03 -2.120199997756531604e-02 -3.000100065339343847e-06 -9.800001967602248621e-05 -1.947099999988554861e-02 3.691000044374024257e-03 -2.133999742024903033e-03 -2.120000001824218563e-02 -7.830001552411525656e-04 5.589999203394910516e-04 -2.046499999623632715e-02 7.889998448471605185e-04 5.590000392462381304e-04 -2.044900000491353675e-02 -7.800011065909504503e-05 4.199997465070890427e-05 -1.947199999961140432e-02 7.799988878554113244e-05 4.999998645801896217e-05 -1.946300000048049525e-02 9.299995989404851913e-05 -9.640000134173888494e-04 -2.047399999955042821e-02 -8.000112941267113642e-06 6.999979052829972572e-06 -2.036499999996283297e-02 -9.600004026660343564e-05 -9.610000276995210025e-04 -2.046199999851017540e-02 4.999560676026432120e-06 4.261999979207942851e-03 -2.119400000428481312e-02
