1.103450718999999935e+01 0.000000000000000000e+00 0.000000000000000000e+00 0.000000000000000000e+00 1.470179071999999998e+01 0.000000000000000000e+00 0.000000000000000000e+00 0.000000000000000000e+00 1.974541590000000113e+01
1.103450718999999935e+01 0.000000000000000000e+00 0.000000000000000000e+00 0.000000000000000000e+00 1.470179071999999998e+01 0.000000000000000000e+00 0.000000000000000000e+00 0.000000000000000000e+00 1.974541590000000113e+01
1.103450718999999935e+01 0.000000000000000000e+00 0.000000000000000000e+00 0.000000000000000000e+00 1.470179071999999998e+01 0.000000000000000000e+00 0.000000000000000000e+00 0.000000000000000000e+00 1.974541590000000113e+01
1.103450718999999935e+01 0.000000000000000000e+00 0.000000000000000000e+00 0.000000000000000000e+00 1.470179071999999998e+01 0.000000000000000000e+00 0.000000000000000000e+00 0.000000000000000000e+00 1.974541590000000113e+01
1.103450718999999935e+01 0.000000000000000000e+00 0.000000000000000000e+00 0.000000000000000000e+00 1.470179071999999998e+01 0.000000000000000000e+00 0.000000000000000000e+00 0.000000000000000000e+00 1.974541590000000113e+01
