1.499999999999999869e-04 1.467774000000000001e+01 4.569060000000000343e+00 1.839229999999999920e+00 2.426250000000000018e+00 4.569049999999999834e+00 1.600000000000000131e-04 3.291030000000000122e+00 1.987039999999999917e+00 1.839239999999999986e+00 8.407400000000000428e-01 1.987039999999999917e+00 3.678319999999999812e+00 1.467774000000000001e+01 4.569060000000000343e+00 5.517400000000000304e+00 2.426250000000000018e+00 4.569049999999999834e+00 3.678329999999999878e+00 3.291030000000000122e+00 1.987039999999999917e+00 5.517409999999999926e+00 8.407400000000000428e-01 1.987039999999999917e+00 7.356480000000000352e+00 1.467774000000000001e+01 4.569060000000000343e+00 9.195570000000000022e+00 2.426250000000000018e+00 4.569049999999999834e+00 7.356499999999999595e+00 3.291030000000000122e+00 1.987039999999999917e+00 9.195579999999999643e+00 8.407400000000000428e-01 1.987039999999999917e+00 1.499999999999999869e-04 4.876540000000000319e+00 4.569060000000000343e+00 1.839229999999999920e+00 7.326839999999999797e+00 4.569049999999999834e+00 1.600000000000000131e-04 8.191629999999999967e+00 1.987039999999999917e+00 1.839239999999999986e+00 5.741329999999999600e+00 1.987039999999999917e+00 3.678319999999999812e+00 4.876540000000000319e+00 4.569060000000000343e+00 5.517400000000000304e+00 7.326839999999999797e+00 4.569049999999999834e+00 3.678329999999999878e+00 8.191629999999999967e+00 1.987039999999999917e+00 5.517409999999999926e+00 5.741329999999999600e+00 1.987039999999999917e+00 7.356480000000000352e+00 4.876540000000000319e+00 4.569060000000000343e+00 9.195570000000000022e+00 7.326839999999999797e+00 4.569049999999999834e+00 7.356499999999999595e+00 8.191629999999999967e+00 1.987039999999999917e+00 9.195579999999999643e+00 5.741329999999999600e+00 1.987039999999999917e+00 1.499999999999999869e-04 9.777139999999999276e+00 4.569060000000000343e+00 1.839229999999999920e+00 1.222743999999999964e+01 4.569049999999999834e+00 1.600000000000000131e-04 1.309223000000000070e+01 1.987039999999999917e+00 1.839239999999999986e+00 1.064193000000000033e+01 1.987039999999999917e+00 3.678319999999999812e+00 9.777139999999999276e+00 4.569060000000000343e+00 5.517400000000000304e+00 1.222743999999999964e+01 4.569049999999999834e+00 3.678329999999999878e+00 1.309223000000000070e+01 1.987039999999999917e+00 5.517409999999999926e+00 1.064193000000000033e+01 1.987039999999999917e+00 7.356480000000000352e+00 9.777139999999999276e+00 4.569060000000000343e+00 9.195570000000000022e+00 1.222743999999999964e+01 4.569049999999999834e+00 7.356499999999999595e+00 1.309223000000000070e+01 1.987039999999999917e+00 9.195579999999999643e+00 1.064193000000000033e+01 1.987039999999999917e+00 1.499999999999999869e-04 1.467774000000000001e+01 1.115085999999999977e+01 1.839229999999999920e+00 2.426250000000000018e+00 1.115085999999999977e+01 1.600000000000000131e-04 3.291030000000000122e+00 8.568839999999999790e+00 1.839239999999999986e+00 8.407400000000000428e-01 8.568839999999999790e+00 3.678319999999999812e+00 1.467774000000000001e+01 1.115085999999999977e+01 5.517400000000000304e+00 2.426250000000000018e+00 1.115085999999999977e+01 3.678329999999999878e+00 3.291030000000000122e+00 8.568839999999999790e+00 5.517409999999999926e+00 8.407400000000000428e-01 8.568839999999999790e+00 7.356480000000000352e+00 1.467774000000000001e+01 1.115085999999999977e+01 9.195570000000000022e+00 2.426250000000000018e+00 1.115085999999999977e+01 7.356499999999999595e+00 3.291030000000000122e+00 8.568839999999999790e+00 9.195579999999999643e+00 8.407400000000000428e-01 8.568839999999999790e+00 1.499999999999999869e-04 4.876540000000000319e+00 1.115085999999999977e+01 1.839229999999999920e+00 7.326839999999999797e+00 1.115085999999999977e+01 1.600000000000000131e-04 8.191629999999999967e+00 8.568839999999999790e+00 1.839239999999999986e+00 5.741329999999999600e+00 8.568839999999999790e+00 3.678319999999999812e+00 4.876540000000000319e+00 1.115085999999999977e+01 5.517400000000000304e+00 7.326839999999999797e+00 1.115085999999999977e+01 3.678329999999999878e+00 8.191629999999999967e+00 8.568839999999999790e+00 5.517409999999999926e+00 5.741329999999999600e+00 8.568839999999999790e+00 7.356480000000000352e+00 4.876540000000000319e+00 1.115085999999999977e+01 9.195570000000000022e+00 7.326839999999999797e+00 1.115085999999999977e+01 7.356499999999999595e+00 8.191629999999999967e+00 8.568839999999999790e+00 9.195579999999999643e+00 5.741329999999999600e+00 8.568839999999999790e+00 1.499999999999999869e-04 9.777139999999999276e+00 1.115085999999999977e+01 1.839229999999999920e+00 1.222743999999999964e+01 1.115085999999999977e+01 1.600000000000000131e-04 1.309223000000000070e+01 8.568839999999999790e+00 1.839239999999999986e+00 1.064193000000000033e+01 8.568839999999999790e+00 3.678319999999999812e+00 9.777139999999999276e+00 1.115085999999999977e+01 5.517400000000000304e+00 1.222743999999999964e+01 1.115085999999999977e+01 3.678329999999999878e+00 1.309223000000000070e+01 8.568839999999999790e+00 5.517409999999999926e+00 1.064193000000000033e+01 8.568839999999999790e+00 7.356480000000000352e+00 9.777139999999999276e+00 1.115085999999999977e+01 9.195570000000000022e+00 1.222743999999999964e+01 1.115085999999999977e+01 7.356499999999999595e+00 1.309223000000000070e+01 8.568839999999999790e+00 9.195579999999999643e+00 1.064193000000000033e+01 8.568839999999999790e+00 1.499999999999999869e-04 1.467774000000000001e+01 1.773266999999999882e+01 1.839229999999999920e+00 2.426250000000000018e+00 1.773265999999999920e+01 1.600000000000000131e-04 3.291030000000000122e+00 1.515065000000000062e+01 1.839239999999999986e+00 8.407400000000000428e-01 1.515065000000000062e+01 3.678319999999999812e+00 1.467774000000000001e+01 1.773266999999999882e+01 5.517400000000000304e+00 2.426250000000000018e+00 1.773265999999999920e+01 3.678329999999999878e+00 3.291030000000000122e+00 1.515065000000000062e+01 5.517409999999999926e+00 8.407400000000000428e-01 1.515065000000000062e+01 7.356480000000000352e+00 1.467774000000000001e+01 1.773266999999999882e+01 9.195570000000000022e+00 2.426250000000000018e+00 1.773265999999999920e+01 7.356499999999999595e+00 3.291030000000000122e+00 1.515065000000000062e+01 9.195579999999999643e+00 8.407400000000000428e-01 1.515065000000000062e+01 1.499999999999999869e-04 4.876540000000000319e+00 1.773266999999999882e+01 1.839229999999999920e+00 7.326839999999999797e+00 1.773265999999999920e+01 1.600000000000000131e-04 8.191629999999999967e+00 1.515065000000000062e+01 1.839239999999999986e+00 5.741329999999999600e+00 1.515065000000000062e+01 3.678319999999999812e+00 4.876540000000000319e+00 1.773266999999999882e+01 5.517400000000000304e+00 7.326839999999999797e+00 1.773265999999999920e+01 3.678329999999999878e+00 8.191629999999999967e+00 1.515065000000000062e+01 5.517409999999999926e+00 5.741329999999999600e+00 1.515065000000000062e+01 7.356480000000000352e+00 4.876540000000000319e+00 1.773266999999999882e+01 9.195570000000000022e+00 7.326839999999999797e+00 1.773265999999999920e+01 7.356499999999999595e+00 8.191629999999999967e+00 1.515065000000000062e+01 9.195579999999999643e+00 5.741329999999999600e+00 1.515065000000000062e+01 1.499999999999999869e-04 9.777139999999999276e+00 1.773266999999999882e+01 1.839229999999999920e+00 1.222743999999999964e+01 1.773265999999999920e+01 1.600000000000000131e-04 1.309223000000000070e+01 1.515065000000000062e+01 1.839239999999999986e+00 1.064193000000000033e+01 1.515065000000000062e+01 3.678319999999999812e+00 9.777139999999999276e+00 1.773266999999999882e+01 5.517400000000000304e+00 1.222743999999999964e+01 1.773265999999999920e+01 3.678329999999999878e+00 1.309223000000000070e+01 1.515065000000000062e+01 5.517409999999999926e+00 1.064193000000000033e+01 1.515065000000000062e+01 7.356480000000000352e+00 9.777139999999999276e+00 1.773266999999999882e+01 9.195570000000000022e+00 1.222743999999999964e+01 1.773265999999999920e+01 7.356499999999999595e+00 1.309223000000000070e+01 1.515065000000000062e+01 9.195579999999999643e+00 1.064193000000000033e+01 1.515065000000000062e+01 1.499999999999999869e-04 1.633469999999999978e+00 3.278010000000000090e+00 1.399999999999999877e-04 3.104410000000000114e+00 5.497899999999999565e+00 1.839239999999999986e+00 2.612899999999999778e+00 1.058140000000000081e+00 1.600000000000000131e-04 1.625999999999999945e-01 1.058140000000000081e+00 1.839239999999999986e+00 4.083770000000000344e+00 3.278000000000000025e+00 1.839229999999999920e+00 6.541099999999999692e-01 5.497899999999999565e+00 3.678319999999999812e+00 1.633469999999999978e+00 3.278010000000000090e+00 3.678310000000000191e+00 3.104410000000000114e+00 5.497899999999999565e+00 5.517409999999999926e+00 2.612899999999999778e+00 1.058140000000000081e+00 3.678329999999999878e+00 1.625999999999999945e-01 1.058140000000000081e+00 5.517409999999999926e+00 4.083770000000000344e+00 3.278000000000000025e+00 5.517400000000000304e+00 6.541099999999999692e-01 5.497899999999999565e+00 7.356489999999999974e+00 1.633469999999999978e+00 3.278010000000000090e+00 7.356480000000000352e+00 3.104410000000000114e+00 5.497899999999999565e+00 9.195579999999999643e+00 2.612899999999999778e+00 1.058140000000000081e+00 7.356489999999999974e+00 1.625999999999999945e-01 1.058140000000000081e+00 9.195579999999999643e+00 4.083770000000000344e+00 3.278000000000000025e+00 9.195570000000000022e+00 6.541099999999999692e-01 5.497899999999999565e+00 1.499999999999999869e-04 6.534060000000000201e+00 3.278010000000000090e+00 1.399999999999999877e-04 8.005010000000000403e+00 5.497899999999999565e+00 1.839239999999999986e+00 7.513499999999999623e+00 1.058140000000000081e+00 1.600000000000000131e-04 5.063200000000000145e+00 1.058140000000000081e+00 1.839239999999999986e+00 8.984360000000000568e+00 3.278000000000000025e+00 1.839229999999999920e+00 5.554710000000000036e+00 5.497899999999999565e+00 3.678319999999999812e+00 6.534060000000000201e+00 3.278010000000000090e+00 3.678310000000000191e+00 8.005010000000000403e+00 5.497899999999999565e+00 5.517409999999999926e+00 7.513499999999999623e+00 1.058140000000000081e+00 3.678329999999999878e+00 5.063200000000000145e+00 1.058140000000000081e+00 5.517409999999999926e+00 8.984360000000000568e+00 3.278000000000000025e+00 5.517400000000000304e+00 5.554710000000000036e+00 5.497899999999999565e+00 7.356489999999999974e+00 6.534060000000000201e+00 3.278010000000000090e+00 7.356480000000000352e+00 8.005010000000000403e+00 5.497899999999999565e+00 9.195579999999999643e+00 7.513499999999999623e+00 1.058140000000000081e+00 7.356489999999999974e+00 5.063200000000000145e+00 1.058140000000000081e+00 9.195579999999999643e+00 8.984360000000000568e+00 3.278000000000000025e+00 9.195570000000000022e+00 5.554710000000000036e+00 5.497899999999999565e+00 1.499999999999999869e-04 1.143465999999999916e+01 3.278010000000000090e+00 1.399999999999999877e-04 1.290560999999999936e+01 5.497899999999999565e+00 1.839239999999999986e+00 1.241408999999999985e+01 1.058140000000000081e+00 1.600000000000000131e-04 9.963789999999999480e+00 1.058140000000000081e+00 1.839239999999999986e+00 1.388495999999999952e+01 3.278000000000000025e+00 1.839229999999999920e+00 1.045531000000000077e+01 5.497899999999999565e+00 3.678319999999999812e+00 1.143465999999999916e+01 3.278010000000000090e+00 3.678310000000000191e+00 1.290560999999999936e+01 5.497899999999999565e+00 5.517409999999999926e+00 1.241408999999999985e+01 1.058140000000000081e+00 3.678329999999999878e+00 9.963789999999999480e+00 1.058140000000000081e+00 5.517409999999999926e+00 1.388495999999999952e+01 3.278000000000000025e+00 5.517400000000000304e+00 1.045531000000000077e+01 5.497899999999999565e+00 7.356489999999999974e+00 1.143465999999999916e+01 3.278010000000000090e+00 7.356480000000000352e+00 1.290560999999999936e+01 5.497899999999999565e+00 9.195579999999999643e+00 1.241408999999999985e+01 1.058140000000000081e+00 7.356489999999999974e+00 9.963789999999999480e+00 1.058140000000000081e+00 9.195579999999999643e+00 1.388495999999999952e+01 3.278000000000000025e+00 9.195570000000000022e+00 1.045531000000000077e+01 5.497899999999999565e+00 1.499999999999999869e-04 1.633469999999999978e+00 9.859809999999999519e+00 1.399999999999999877e-04 3.104410000000000114e+00 1.207970000000000077e+01 1.839239999999999986e+00 2.612899999999999778e+00 7.639949999999999797e+00 1.600000000000000131e-04 1.625999999999999945e-01 7.639949999999999797e+00 1.839239999999999986e+00 4.083770000000000344e+00 9.859809999999999519e+00 1.839229999999999920e+00 6.541099999999999692e-01 1.207970000000000077e+01 3.678319999999999812e+00 1.633469999999999978e+00 9.859809999999999519e+00 3.678310000000000191e+00 3.104410000000000114e+00 1.207970000000000077e+01 5.517409999999999926e+00 2.612899999999999778e+00 7.639949999999999797e+00 3.678329999999999878e+00 1.625999999999999945e-01 7.639949999999999797e+00 5.517409999999999926e+00 4.083770000000000344e+00 9.859809999999999519e+00 5.517400000000000304e+00 6.541099999999999692e-01 1.207970000000000077e+01 7.356489999999999974e+00 1.633469999999999978e+00 9.859809999999999519e+00 7.356480000000000352e+00 3.104410000000000114e+00 1.207970000000000077e+01 9.195579999999999643e+00 2.612899999999999778e+00 7.639949999999999797e+00 7.356489999999999974e+00 1.625999999999999945e-01 7.639949999999999797e+00 9.195579999999999643e+00 4.083770000000000344e+00 9.859809999999999519e+00 9.195570000000000022e+00 6.541099999999999692e-01 1.207970000000000077e+01 1.499999999999999869e-04 6.534060000000000201e+00 9.859809999999999519e+00 1.399999999999999877e-04 8.005010000000000403e+00 1.207970000000000077e+01 1.839239999999999986e+00 7.513499999999999623e+00 7.639949999999999797e+00 1.600000000000000131e-04 5.063200000000000145e+00 7.639949999999999797e+00 1.839239999999999986e+00 8.984360000000000568e+00 9.859809999999999519e+00 1.839229999999999920e+00 5.554710000000000036e+00 1.207970000000000077e+01 3.678319999999999812e+00 6.534060000000000201e+00 9.859809999999999519e+00 3.678310000000000191e+00 8.005010000000000403e+00 1.207970000000000077e+01 5.517409999999999926e+00 7.513499999999999623e+00 7.639949999999999797e+00 3.678329999999999878e+00 5.063200000000000145e+00 7.639949999999999797e+00 5.517409999999999926e+00 8.984360000000000568e+00 9.859809999999999519e+00 5.517400000000000304e+00 5.554710000000000036e+00 1.207970000000000077e+01 7.356489999999999974e+00 6.534060000000000201e+00 9.859809999999999519e+00 7.356480000000000352e+00 8.005010000000000403e+00 1.207970000000000077e+01 9.195579999999999643e+00 7.513499999999999623e+00 7.639949999999999797e+00 7.356489999999999974e+00 5.063200000000000145e+00 7.639949999999999797e+00 9.195579999999999643e+00 8.984360000000000568e+00 9.859809999999999519e+00 9.195570000000000022e+00 5.554710000000000036e+00 1.207970000000000077e+01 1.499999999999999869e-04 1.143465999999999916e+01 9.859809999999999519e+00 1.399999999999999877e-04 1.290560999999999936e+01 1.207970000000000077e+01 1.839239999999999986e+00 1.241408999999999985e+01 7.639949999999999797e+00 1.600000000000000131e-04 9.963789999999999480e+00 7.639949999999999797e+00 1.839239999999999986e+00 1.388495999999999952e+01 9.859809999999999519e+00 1.839229999999999920e+00 1.045531000000000077e+01 1.207970000000000077e+01 3.678319999999999812e+00 1.143465999999999916e+01 9.859809999999999519e+00 3.678310000000000191e+00 1.290560999999999936e+01 1.207970000000000077e+01 5.517409999999999926e+00 1.241408999999999985e+01 7.639949999999999797e+00 3.678329999999999878e+00 9.963789999999999480e+00 7.639949999999999797e+00 5.517409999999999926e+00 1.388495999999999952e+01 9.859809999999999519e+00 5.517400000000000304e+00 1.045531000000000077e+01 1.207970000000000077e+01 7.356489999999999974e+00 1.143465999999999916e+01 9.859809999999999519e+00 7.356480000000000352e+00 1.290560999999999936e+01 1.207970000000000077e+01 9.195579999999999643e+00 1.241408999999999985e+01 7.639949999999999797e+00 7.356489999999999974e+00 9.963789999999999480e+00 7.639949999999999797e+00 9.195579999999999643e+00 1.388495999999999952e+01 9.859809999999999519e+00 9.195570000000000022e+00 1.045531000000000077e+01 1.207970000000000077e+01 1.499999999999999869e-04 1.633469999999999978e+00 1.644162000000000035e+01 1.399999999999999877e-04 3.104410000000000114e+00 1.866150999999999982e+01 1.839239999999999986e+00 2.612899999999999778e+00 1.422175000000000011e+01 1.600000000000000131e-04 1.625999999999999945e-01 1.422175000000000011e+01 1.839239999999999986e+00 4.083770000000000344e+00 1.644162000000000035e+01 1.839229999999999920e+00 6.541099999999999692e-01 1.866150999999999982e+01 3.678319999999999812e+00 1.633469999999999978e+00 1.644162000000000035e+01 3.678310000000000191e+00 3.104410000000000114e+00 1.866150999999999982e+01 5.517409999999999926e+00 2.612899999999999778e+00 1.422175000000000011e+01 3.678329999999999878e+00 1.625999999999999945e-01 1.422175000000000011e+01 5.517409999999999926e+00 4.083770000000000344e+00 1.644162000000000035e+01 5.517400000000000304e+00 6.541099999999999692e-01 1.866150999999999982e+01 7.356489999999999974e+00 1.633469999999999978e+00 1.644162000000000035e+01 7.356480000000000352e+00 3.104410000000000114e+00 1.866150999999999982e+01 9.195579999999999643e+00 2.612899999999999778e+00 1.422175000000000011e+01 7.356489999999999974e+00 1.625999999999999945e-01 1.422175000000000011e+01 9.195579999999999643e+00 4.083770000000000344e+00 1.644162000000000035e+01 9.195570000000000022e+00 6.541099999999999692e-01 1.866150999999999982e+01 1.499999999999999869e-04 6.534060000000000201e+00 1.644162000000000035e+01 1.399999999999999877e-04 8.005010000000000403e+00 1.866150999999999982e+01 1.839239999999999986e+00 7.513499999999999623e+00 1.422175000000000011e+01 1.600000000000000131e-04 5.063200000000000145e+00 1.422175000000000011e+01 1.839239999999999986e+00 8.984360000000000568e+00 1.644162000000000035e+01 1.839229999999999920e+00 5.554710000000000036e+00 1.866150999999999982e+01 3.678319999999999812e+00 6.534060000000000201e+00 1.644162000000000035e+01 3.678310000000000191e+00 8.005010000000000403e+00 1.866150999999999982e+01 5.517409999999999926e+00 7.513499999999999623e+00 1.422175000000000011e+01 3.678329999999999878e+00 5.063200000000000145e+00 1.422175000000000011e+01 5.517409999999999926e+00 8.984360000000000568e+00 1.644162000000000035e+01 5.517400000000000304e+00 5.554710000000000036e+00 1.866150999999999982e+01 7.356489999999999974e+00 6.534060000000000201e+00 1.644162000000000035e+01 7.356480000000000352e+00 8.005010000000000403e+00 1.866150999999999982e+01 9.195579999999999643e+00 7.513499999999999623e+00 1.422175000000000011e+01 7.356489999999999974e+00 5.063200000000000145e+00 1.422175000000000011e+01 9.195579999999999643e+00 8.984360000000000568e+00 1.644162000000000035e+01 9.195570000000000022e+00 5.554710000000000036e+00 1.866150999999999982e+01 1.499999999999999869e-04 1.143465999999999916e+01 1.644162000000000035e+01 1.399999999999999877e-04 1.290560999999999936e+01 1.866150999999999982e+01 1.839239999999999986e+00 1.241408999999999985e+01 1.422175000000000011e+01 1.600000000000000131e-04 9.963789999999999480e+00 1.422175000000000011e+01 1.839239999999999986e+00 1.388495999999999952e+01 1.644162000000000035e+01 1.839229999999999920e+00 1.045531000000000077e+01 1.866150999999999982e+01 3.678319999999999812e+00 1.143465999999999916e+01 1.644162000000000035e+01 3.678310000000000191e+00 1.290560999999999936e+01 1.866150999999999982e+01 5.517409999999999926e+00 1.241408999999999985e+01 1.422175000000000011e+01 3.678329999999999878e+00 9.963789999999999480e+00 1.422175000000000011e+01 5.517409999999999926e+00 1.388495999999999952e+01 1.644162000000000035e+01 5.517400000000000304e+00 1.045531000000000077e+01 1.866150999999999982e+01 7.356489999999999974e+00 1.143465999999999916e+01 1.644162000000000035e+01 7.356480000000000352e+00 1.290560999999999936e+01 1.866150999999999982e+01 9.195579999999999643e+00 1.241408999999999985e+01 1.422175000000000011e+01 7.356489999999999974e+00 9.963789999999999480e+00 1.422175000000000011e+01 9.195579999999999643e+00 1.388495999999999952e+01 1.644162000000000035e+01 9.195570000000000022e+00 1.045531000000000077e+01 1.866150999999999982e+01