-2.738019712079999863e+03
-2.737986744190000081e+03
-2.737886787399999776e+03
-2.737720666019999953e+03
-2.737489705299999969e+03
