3.399999999999999973e-05 4.475999999999999944e-03 -3.344999999999999883e-03 2.829999999999999942e-04 4.433000000000000308e-03 -3.235000000000000028e-03 5.099999999999999960e-05 -3.989000000000000358e-03 3.516000000000000028e-03 2.220000000000000022e-04 -4.150000000000000043e-03 3.680000000000000111e-03 2.489999999999999809e-04 4.488999999999999935e-03 -3.400999999999999943e-03 7.100000000000000462e-05 4.372000000000000018e-03 -3.171000000000000207e-03 8.500000000000000611e-05 -4.126999999999999592e-03 3.763999999999999985e-03 1.800000000000000113e-04 -4.292999999999999941e-03 3.543999999999999841e-03 -7.799999999999999859e-05 4.649999999999999620e-03 -3.504999999999999869e-03 -1.389999999999999905e-04 4.276000000000000287e-03 -3.305000000000000212e-03 -9.100000000000000287e-05 -4.204000000000000271e-03 3.660000000000000059e-03 -4.060000000000000024e-04 -4.161999999999999901e-03 3.534999999999999948e-03 2.079999999999999872e-04 4.625999999999999904e-03 -3.337000000000000122e-03 2.000000000000000096e-04 4.458000000000000157e-03 -3.181999999999999933e-03 1.420000000000000092e-04 -3.801000000000000125e-03 3.482999999999999985e-03 -3.000000000000000076e-05 -3.952999999999999917e-03 3.618999999999999821e-03 1.640000000000000019e-04 4.551999999999999623e-03 -3.109999999999999917e-03 -1.090000000000000067e-04 4.295000000000000207e-03 -2.971999999999999816e-03 -1.890000000000000133e-04 -3.625000000000000184e-03 3.608000000000000096e-03 -9.000000000000000228e-06 -4.146999999999999645e-03 3.903999999999999918e-03 -2.010000000000000068e-04 4.460999999999999688e-03 -3.150000000000000022e-03 9.299999999999999727e-05 4.533999999999999836e-03 -3.213000000000000144e-03 1.050000000000000044e-04 -3.825999999999999974e-03 3.759000000000000188e-03 6.600000000000000506e-05 -3.997999999999999818e-03 3.576000000000000185e-03 2.069999999999999900e-04 4.525000000000000376e-03 -3.386999999999999820e-03 2.229999999999999994e-04 4.308000000000000197e-03 -3.446999999999999977e-03 9.899999999999999404e-05 -4.049999999999999781e-03 3.667999999999999820e-03 2.069999999999999900e-04 -3.926999999999999935e-03 3.615999999999999857e-03 -8.600000000000000331e-05 4.521999999999999978e-03 -3.344000000000000184e-03 -9.100000000000000287e-05 4.557000000000000287e-03 -3.618999999999999821e-03 2.519999999999999996e-04 -4.039000000000000055e-03 3.524999999999999922e-03 -2.429999999999999977e-04 -3.569000000000000124e-03 3.480000000000000020e-03 8.000000000000000654e-05 4.512999999999999651e-03 -3.347999999999999848e-03 7.299999999999999903e-05 4.418000000000000052e-03 -3.445999999999999844e-03 -3.359999999999999814e-04 -3.684000000000000209e-03 3.354999999999999909e-03 8.500000000000000611e-05 -3.976000000000000367e-03 3.667999999999999820e-03 -2.210000000000000050e-04 4.395999999999999734e-03 -3.465000000000000198e-03 -4.399999999999999886e-05 4.360000000000000160e-03 -3.527999999999999886e-03 -2.699999999999999899e-05 -4.021000000000000268e-03 3.665999999999999988e-03 5.700000000000000314e-05 -4.151000000000000176e-03 3.605000000000000131e-03 4.800000000000000122e-05 4.402999999999999796e-03 -3.603999999999999999e-03 4.609999999999999840e-04 4.666000000000000009e-03 -3.661000000000000192e-03 4.389999999999999914e-04 -3.834999999999999867e-03 3.305999999999999911e-03 6.099999999999999872e-05 -3.755999999999999790e-03 3.474999999999999790e-03 3.620000000000000171e-04 4.596000000000000259e-03 -3.518999999999999993e-03 -2.059999999999999928e-04 4.318999999999999923e-03 -3.252999999999999815e-03 -3.579999999999999741e-04 -3.795999999999999895e-03 3.575000000000000053e-03 -7.700000000000000139e-05 -4.205999999999999669e-03 3.860999999999999849e-03 -3.110000000000000243e-04 4.660000000000000080e-03 -3.481000000000000153e-03 2.030000000000000012e-04 4.714000000000000308e-03 -3.400999999999999943e-03 -1.420000000000000092e-04 -3.941000000000000059e-03 3.710999999999999889e-03 2.910000000000000260e-04 -4.043999999999999852e-03 3.467000000000000030e-03 4.899999999999999842e-04 4.802999999999999978e-03 -3.658999999999999926e-03 2.689999999999999791e-04 4.542000000000000030e-03 -3.230999999999999931e-03 3.440000000000000132e-04 -3.931999999999999731e-03 3.472999999999999959e-03 9.799999999999999684e-05 -4.034000000000000259e-03 3.455000000000000172e-03 1.299999999999999920e-05 4.656000000000000416e-03 -3.354000000000000210e-03 -2.439999999999999949e-04 4.542000000000000030e-03 -3.222000000000000038e-03 -1.589999999999999888e-04 -4.207999999999999935e-03 3.752000000000000127e-03 -3.699999999999999947e-04 -3.946999999999999988e-03 3.689000000000000005e-03 -1.310000000000000129e-04 4.497000000000000129e-03 -3.370999999999999865e-03 -2.400000000000000061e-05 4.297999999999999737e-03 -3.399000000000000112e-03 -1.399999999999999979e-05 -4.021000000000000268e-03 3.776999999999999975e-03 1.869999999999999917e-04 -4.191000000000000281e-03 3.677999999999999846e-03 2.020000000000000040e-04 4.338999999999999975e-03 -3.408000000000000005e-03 1.469999999999999953e-04 4.210000000000000200e-03 -3.403999999999999908e-03 -7.799999999999999859e-05 -4.072000000000000099e-03 3.681999999999999943e-03 -1.589999999999999888e-04 -4.429999999999999910e-03 3.824000000000000142e-03 1.060000000000000016e-04 4.237999999999999580e-03 -3.252000000000000116e-03 8.600000000000000331e-05 4.364999999999999956e-03 -3.340999999999999786e-03 1.310000000000000129e-04 -3.988000000000000225e-03 3.848999999999999991e-03 9.999999999999999547e-07 -4.257999999999999632e-03 3.930999999999999599e-03 -1.310000000000000129e-04 4.485000000000000271e-03 -3.810000000000000019e-03 -3.510000000000000208e-04 4.355999999999999629e-03 -3.612999999999999892e-03 -3.809999999999999910e-04 -4.284999999999999747e-03 3.727999999999999977e-03 -2.280000000000000126e-04 -4.295000000000000207e-03 3.915000000000000077e-03 3.020000000000000223e-04 4.330999999999999781e-03 -3.592999999999999840e-03 3.789999999999999966e-04 4.009999999999999676e-03 -3.601000000000000034e-03 6.299999999999999990e-05 -4.040000000000000188e-03 3.726999999999999844e-03 3.080000000000000055e-04 -4.334000000000000179e-03 3.968000000000000173e-03 2.400000000000000061e-05 4.373000000000000151e-03 -3.605000000000000131e-03 1.479999999999999925e-04 4.237000000000000315e-03 -3.689000000000000005e-03 3.469999999999999777e-04 -3.943000000000000324e-03 3.406999999999999872e-03 -2.599999999999999840e-05 -3.969000000000000306e-03 3.739999999999999835e-03 1.179999999999999951e-04 4.491000000000000200e-03 -3.467000000000000030e-03 -1.510000000000000112e-04 4.335999999999999577e-03 -3.102000000000000157e-03 -4.310000000000000137e-04 -4.054999999999999577e-03 3.667000000000000121e-03 -6.000000000000000152e-05 -4.134999999999999787e-03 3.873000000000000140e-03 -1.659999999999999963e-04 4.752000000000000147e-03 -3.629999999999999980e-03 0.000000000000000000e+00 4.695999999999999654e-03 -3.782999999999999904e-03 5.869999999999999567e-04 -3.880999999999999901e-03 3.436999999999999951e-03 4.249999999999999763e-04 -3.759999999999999887e-03 3.253999999999999948e-03 2.380000000000000117e-04 4.477000000000000077e-03 -3.824000000000000142e-03 3.649999999999999816e-04 4.533999999999999836e-03 -3.589000000000000176e-03 -1.489999999999999897e-04 -3.916000000000000210e-03 3.187000000000000163e-03 -3.660000000000000059e-04 -4.037999999999999923e-03 3.439999999999999915e-03 -1.359999999999999989e-04 4.386000000000000142e-03 -3.413999999999999934e-03 7.100000000000000462e-05 4.526999999999999774e-03 -3.648000000000000201e-03 -1.150000000000000035e-04 -4.013000000000000074e-03 3.818999999999999912e-03 1.060000000000000016e-04 -3.825999999999999974e-03 3.634000000000000077e-03 3.629999999999999872e-04 4.611999999999999780e-03 -3.444000000000000013e-03 2.709999999999999735e-04 4.376999999999999814e-03 -3.490000000000000047e-03 4.300000000000000165e-05 -4.146999999999999645e-03 3.883999999999999866e-03 2.919999999999999961e-04 -4.198999999999999608e-03 3.706999999999999792e-03 -2.099999999999999884e-05 4.886999999999999851e-03 -3.808000000000000187e-03 -1.399999999999999877e-04 4.480999999999999740e-03 -3.697999999999999898e-03 8.500000000000000611e-05 -4.120000000000000398e-03 3.944999999999999722e-03 -3.640000000000000115e-04 -4.034000000000000259e-03 3.667999999999999820e-03 3.699999999999999811e-05 -4.200000000000000174e-04 -6.819999999999999890e-04 2.300000000000000070e-04 -4.581000000000000003e-03 -2.866000000000000058e-03 -9.200000000000000007e-05 3.112000000000000183e-03 3.154999999999999818e-03 -7.100000000000000462e-05 2.628000000000000128e-03 2.857000000000000164e-03 2.730000000000000222e-04 3.409999999999999945e-04 -1.900000000000000105e-04 4.569999999999999952e-04 -4.825000000000000296e-03 -3.053999999999999857e-03 4.400000000000000157e-04 -2.349999999999999930e-04 -4.150000000000000043e-04 8.109999999999999805e-04 -4.416999999999999919e-03 -2.589000000000000155e-03 2.229999999999999994e-04 2.527000000000000166e-03 3.664000000000000156e-03 4.369999999999999970e-04 2.328000000000000208e-03 3.041999999999999999e-03 3.399999999999999973e-05 1.389999999999999905e-04 1.079999999999999960e-04 1.710000000000000094e-04 -4.243000000000000244e-03 -3.089999999999999865e-03 -3.379999999999999758e-04 -4.459999999999999989e-04 -5.400000000000000069e-04 -7.849999999999999990e-04 -4.316000000000000392e-03 -2.418000000000000010e-03 -2.649999999999999903e-04 2.870999999999999854e-03 3.099000000000000192e-03 -3.660000000000000059e-04 2.320000000000000014e-03 3.233999999999999896e-03 -3.680000000000000003e-04 1.459999999999999981e-04 -3.789999999999999966e-04 -4.000000000000000192e-04 -4.704999999999999981e-03 -3.370000000000000166e-03 1.310000000000000129e-04 8.390000000000000105e-04 -5.689999999999999529e-04 3.530000000000000152e-04 -4.245999999999999774e-03 -3.307000000000000044e-03 -1.779999999999999898e-04 4.041999999999999586e-03 3.223999999999999869e-03 -3.800000000000000209e-05 3.899999999999999821e-03 3.213999999999999843e-03 1.050000000000000044e-04 7.569999999999999689e-04 -5.710000000000000015e-04 6.149999999999999868e-04 -4.065000000000000037e-03 -2.967000000000000019e-03 4.399999999999999886e-05 7.249999999999999500e-04 1.029999999999999964e-04 1.499999999999999869e-04 -4.558999999999999685e-03 -2.889000000000000075e-03 -2.069999999999999900e-04 4.348000000000000302e-03 3.676000000000000014e-03 -3.680000000000000003e-04 3.823000000000000009e-03 3.732000000000000074e-03 -3.359999999999999814e-04 6.390000000000000280e-04 -6.539999999999999590e-04 2.400000000000000061e-05 -4.603999999999999586e-03 -2.324000000000000111e-03 -1.689999999999999879e-04 5.140000000000000254e-04 -2.530000000000000239e-04 -3.350000000000000113e-04 -4.968000000000000194e-03 -3.119999999999999944e-03 3.579999999999999741e-04 3.915000000000000077e-03 3.297000000000000017e-03 1.060000000000000016e-04 3.408000000000000005e-03 3.782999999999999904e-03 8.799999999999999771e-05 6.059999999999999849e-04 -8.279999999999999600e-04 -3.849999999999999798e-04 -4.368999999999999620e-03 -2.817000000000000060e-03 2.049999999999999956e-04 -1.190000000000000058e-04 -9.520000000000000467e-04 2.349999999999999930e-04 -5.148999999999999931e-03 -3.555000000000000000e-03 3.780000000000000265e-04 2.981999999999999842e-03 3.044999999999999964e-03 -2.400000000000000061e-05 3.387999999999999953e-03 3.178999999999999968e-03 3.739999999999999835e-04 -5.940000000000000184e-04 -9.330000000000000186e-04 4.099999999999999912e-04 -4.735999999999999759e-03 -3.493000000000000011e-03 -2.500000000000000120e-05 7.899999999999999579e-05 -1.209000000000000005e-03 -8.000000000000000654e-05 -5.054999999999999598e-03 -3.436999999999999951e-03 -1.160000000000000007e-04 3.184000000000000198e-03 2.694000000000000214e-03 -6.799999999999999946e-05 3.910000000000000281e-03 3.289999999999999956e-03 -1.060000000000000016e-04 -3.119999999999999944e-04 -1.136999999999999990e-03 -4.719999999999999803e-04 -4.799000000000000314e-03 -3.469999999999999994e-03 -2.300000000000000070e-04 4.110000000000000155e-04 -1.276999999999999923e-03 -1.830000000000000029e-04 -4.336999999999999710e-03 -3.618999999999999821e-03 -2.090000000000000115e-04 2.952000000000000197e-03 2.628000000000000128e-03 -6.600000000000000506e-05 3.911000000000000414e-03 3.010999999999999788e-03 -3.350000000000000113e-04 -2.320000000000000014e-04 -8.809999999999999472e-04 3.550000000000000096e-04 -4.680000000000000132e-03 -3.701999999999999996e-03 -4.499999999999999877e-04 9.399999999999999448e-05 -5.419999999999999471e-04 -7.219999999999999855e-04 -4.147999999999999778e-03 -2.776999999999999955e-03 3.680000000000000003e-04 3.895000000000000025e-03 1.968000000000000131e-03 1.900000000000000105e-05 3.439999999999999915e-03 2.808000000000000166e-03 1.789999999999999870e-04 7.960000000000000495e-04 -6.319999999999999663e-04 -4.659999999999999971e-04 -4.719000000000000104e-03 -2.773999999999999990e-03 5.069999999999999637e-04 3.420000000000000188e-04 -1.232999999999999938e-03 3.770000000000000022e-04 -3.736999999999999870e-03 -3.367999999999999900e-03 6.799999999999999946e-05 4.357999999999999895e-03 2.109999999999999896e-03 2.489999999999999809e-04 3.684000000000000209e-03 2.193000000000000071e-03 5.419999999999999471e-04 8.949999999999999623e-04 -8.390000000000000105e-04 6.579999999999999478e-04 -4.709999999999999777e-03 -3.063000000000000184e-03 6.000000000000000152e-06 5.490000000000000088e-04 -4.449999999999999746e-04 4.850000000000000253e-04 -3.877999999999999937e-03 -2.978000000000000178e-03 -7.649999999999999465e-04 4.066000000000000170e-03 2.456999999999999983e-03 -3.890000000000000228e-04 4.035000000000000392e-03 2.743000000000000212e-03 -6.800000000000000488e-04 9.610000000000000486e-04 -1.090000000000000067e-04 -1.540000000000000028e-04 -4.662999999999999610e-03 -2.850999999999999802e-03 -4.530000000000000064e-04 9.810000000000001011e-04 1.210000000000000002e-04 -3.869999999999999742e-04 -4.276000000000000287e-03 -2.576999999999999864e-03 4.240000000000000062e-04 3.706000000000000093e-03 2.369000000000000012e-03 -2.759999999999999867e-04 4.238999999999999713e-03 2.321000000000000146e-03 2.500000000000000052e-04 3.310000000000000225e-04 -2.770000000000000110e-04 2.229999999999999994e-04 -3.243999999999999922e-03 -2.935000000000000109e-03 5.940000000000000184e-04 8.019999999999999785e-04 -4.719999999999999803e-04 8.750000000000000182e-04 -4.159999999999999636e-03 -2.612000000000000172e-03 -2.130000000000000003e-04 3.275999999999999832e-03 2.841000000000000209e-03 7.240000000000000342e-04 4.037999999999999923e-03 2.292000000000000200e-03 6.999999999999999387e-05 -6.700000000000000226e-05 -4.699999999999999724e-05 6.740000000000000114e-04 -3.203000000000000118e-03 -2.873000000000000120e-03 -3.310000000000000225e-04 7.330000000000000361e-04 2.300000000000000002e-05 1.900000000000000105e-05 -4.362000000000000426e-03 -2.037000000000000182e-03 -3.020000000000000223e-04 3.534999999999999948e-03 3.066999999999999848e-03 -8.739999999999999939e-04 3.759999999999999887e-03 2.812999999999999962e-03 -3.640000000000000115e-04 1.840000000000000001e-04 2.799999999999999755e-04 -8.239999999999999712e-04 -3.603999999999999999e-03 -2.626999999999999995e-03 -2.649999999999999903e-04 -1.029999999999999964e-04 -3.060000000000000111e-04 -5.680000000000000370e-04 -5.213999999999999885e-03 -2.369000000000000012e-03 1.979999999999999881e-04 2.867000000000000191e-03 2.461000000000000080e-03 2.919999999999999961e-04 3.347000000000000149e-03 2.991999999999999868e-03 -6.200000000000000270e-05 -4.479999999999999933e-04 -7.600000000000000418e-04 -9.000000000000000228e-06 -5.062999999999999792e-03 -2.396000000000000126e-03 1.630000000000000047e-04 -6.269999999999999532e-04 -4.829999999999999767e-04 1.589999999999999888e-04 -5.721000000000000391e-03 -2.602000000000000146e-03 -3.229999999999999907e-04 3.396000000000000147e-03 2.791000000000000078e-03 -8.500000000000000611e-05 2.933999999999999976e-03 2.798000000000000140e-03 2.159999999999999919e-04 -1.210000000000000002e-04 -5.580000000000000107e-04 3.510000000000000208e-04 -5.512000000000000406e-03 -2.086000000000000180e-03 7.399999999999999623e-05 -1.979999999999999881e-04 1.200000000000000030e-05 5.980000000000000072e-04 -5.387000000000000295e-03 -2.279000000000000210e-03 1.959999999999999937e-04 3.402000000000000076e-03 3.164999999999999845e-03 -2.950000000000000148e-04 2.945000000000000135e-03 3.152999999999999987e-03 -1.569999999999999944e-04 -9.000000000000000228e-06 -8.200000000000000095e-05 -5.379999999999999583e-04 -5.278999999999999838e-03 -1.977000000000000025e-03 -4.749999999999999990e-04 -2.539999999999999940e-04 9.100000000000000287e-05 -1.100000000000000039e-04 -5.158000000000000258e-03 -2.883999999999999845e-03 -4.420000000000000101e-04 3.534999999999999948e-03 2.563999999999999873e-03 -5.559999999999999621e-04 3.010999999999999788e-03 2.514999999999999875e-03 -4.369999999999999970e-04 7.540000000000000044e-04 -4.800000000000000122e-05 -4.300000000000000165e-05 -5.575000000000000094e-03 -2.651999999999999844e-03 3.080000000000000055e-04 -5.730000000000000501e-04 2.709999999999999735e-04 6.200000000000000270e-05 -5.223000000000000212e-03 -2.451000000000000054e-03 9.100000000000000016e-04 3.877999999999999937e-03 2.418000000000000010e-03 3.300000000000000253e-05 2.449999999999999921e-03 2.827000000000000086e-03 5.950000000000000427e-04 5.450000000000000200e-04 -7.050000000000000060e-04 3.049999999999999868e-04 -5.867999999999999952e-03 -2.471000000000000106e-03 3.840000000000000097e-04 -4.519999999999999821e-04 -2.500000000000000120e-05 2.329999999999999986e-04 -5.521999999999999999e-03 -2.958000000000000126e-03 -4.670000000000000214e-04 3.521999999999999957e-03 2.204999999999999929e-03 4.260000000000000006e-04 3.065000000000000016e-03 2.562000000000000041e-03 -2.829999999999999942e-04 1.800000000000000113e-04 -7.690000000000000438e-04 -1.279999999999999942e-04 -5.493999999999999752e-03 -2.847000000000000138e-03 -3.099999999999999999e-04 1.046000000000000055e-03 -2.030000000000000012e-04 6.999999999999999895e-06 -4.135999999999999920e-03 -3.020000000000000115e-03 2.400000000000000061e-05 3.989999999999999623e-03 1.814000000000000074e-03 -9.070000000000000371e-04 3.963000000000000377e-03 2.263999999999999953e-03 2.099999999999999884e-05 8.130000000000000291e-04 1.789999999999999870e-04 -3.420000000000000188e-04 -3.723999999999999880e-03 -2.831000000000000183e-03 2.610000000000000015e-04 1.188000000000000037e-03 -4.589999999999999896e-04 -1.930000000000000021e-04 -3.609999999999999928e-03 -3.066999999999999848e-03 6.470000000000000057e-04 4.056999999999999842e-03 1.487000000000000040e-03 6.509999999999999945e-04 4.699000000000000052e-03 2.152999999999999966e-03 4.090000000000000211e-04 6.220000000000000485e-04 -7.590000000000000175e-04 1.420000000000000092e-04 -4.055999999999999710e-03 -3.360000000000000139e-03 8.700000000000000051e-05 7.010000000000000172e-04 -1.309000000000000051e-03 2.700000000000000035e-04 -3.642999999999999971e-03 -3.707999999999999925e-03 -8.369999999999999619e-04 3.893999999999999892e-03 1.590000000000000050e-03 2.290000000000000098e-04 4.421999999999999716e-03 1.768999999999999956e-03 -2.820000000000000241e-04 5.789999999999999791e-04 -4.490000000000000176e-04 4.670000000000000214e-04 -4.277999999999999685e-03 -3.272999999999999868e-03 -2.869999999999999830e-04 3.299999999999999982e-04 4.000000000000000327e-05 -9.000000000000000567e-05 -5.185999999999999638e-03 -2.935000000000000109e-03 -1.060000000000000016e-04 2.560999999999999908e-03 2.308000000000000156e-03 -6.409999999999999682e-04 3.363999999999999803e-03 1.925999999999999978e-03 -1.320000000000000101e-04 -5.289999999999999564e-04 3.589999999999999984e-04 3.089999999999999756e-04 -4.315000000000000259e-03 -2.592999999999999819e-03 4.070000000000000267e-04 3.000000000000000076e-06 1.769999999999999926e-04 5.749999999999999903e-04 -5.305999999999999953e-03 -2.409000000000000117e-03 5.299999999999999807e-04 2.266999999999999918e-03 2.569999999999999802e-03 6.830000000000000134e-04 3.111000000000000050e-03 1.915999999999999951e-03 3.190000000000000019e-04 -6.570000000000000319e-04 5.869999999999999567e-04 -3.999999999999999819e-06 -3.890999999999999927e-03 -3.041999999999999999e-03 -9.200000000000000007e-05 -3.570000000000000040e-04 -6.000000000000000152e-05 -4.360000000000000269e-04 -5.231999999999999672e-03 -2.448999999999999788e-03 -4.609999999999999840e-04 2.701999999999999975e-03 2.223000000000000149e-03 -1.389999999999999905e-04 2.713000000000000134e-03 1.923000000000000013e-03 -2.139999999999999975e-04 -4.820000000000000066e-04 2.579999999999999828e-04 -9.299999999999999727e-05 -4.316000000000000392e-03 -3.152999999999999987e-03