-1.412880948989999979e+03
-1.412880951039999900e+03
-1.412880954920000022e+03
-1.412880960940000023e+03
-1.412880969179999965e+03
