9.884894541228891537e-03 -1.971187864727433814e-05 -1.201975973110553514e-01 2.248961223575455734e-03 6.130119063745781503e-04 9.640828893290230789e-04 3.119829838027008643e-03 -2.269943817535337565e-03 4.135159228734665120e-03 4.939297144961079427e-04 -1.923976440309771050e-03 1.689047392547270675e-03 -1.441138588896293286e-03 1.953049913894420748e-03 3.440913628882741326e-03 1.768496264103424883e-04 1.105222000684784501e-05 3.693007048202242865e-03 2.141298161919463414e-02 -5.506011874402218058e-03 3.459500180298992760e-04 2.887850913907969667e-03 -5.950356383468712976e-06 3.661117683481345930e-03 1.969383319751195557e-02 6.816044508527574486e-03 4.227705316876685486e-03 -1.281375149541287193e-04 -9.520213614496347723e-07 3.376994798769566465e-03 -4.118363700011876528e-06 6.704123215414650348e-05 2.907998884503170973e-03 5.187014433236883398e-05 4.045172273209954418e-06 3.189002057808715089e-03 4.887488751665420363e-05 -2.295648417713716345e-05 3.072002318554538109e-03 8.487689688729782003e-05 -5.695722125133934939e-05 3.022004266595616252e-03 -3.012024469780418735e-05 5.041890519088210834e-06 2.952998704740545082e-03 -3.611639582734519613e-05 -7.195946584352723918e-05 2.856999552192466922e-03 3.487539576768311880e-05 2.043356648744373049e-06 3.060001394029690947e-03 5.586800730599609377e-05 8.304593473421083890e-05 3.243001100598606832e-03 7.863420728819634588e-06 -1.952453938119383717e-06 3.354000351004463119e-03 -4.812522513755085226e-05 4.104364847821948003e-05 3.075997461251399941e-03 -4.812159552275674753e-05 -3.957627518826693250e-06 2.985998099334419287e-03 2.887737388018469042e-05 3.204268080951952767e-05 3.012000724416301171e-03 5.287547716945263003e-05 -4.995669997333032972e-05 3.057002864251499863e-03 -8.612391344482623636e-05 4.321036895968908295e-08 3.042996495178036231e-03 3.875709806512315390e-06 -1.295673249922552699e-05 3.052000344357195128e-03 -2.711947413862611926e-05 1.041618792391086644e-06 2.933998883631814582e-03 3.487722663833666325e-05 4.271864815465117016e-08 3.015001422427049729e-03 4.440903880680253718e-04 -1.710318648721469181e-04 -2.222979493478054354e-03 3.611705054504196099e-05 1.799592673435045282e-04 -2.871001083377906771e-03 -4.068940222715361618e-04 -3.360366711547945070e-04 -2.609011807232557330e-03 -2.090123134781245726e-05 4.939657628395208991e-04 -2.416007856707116670e-03 1.181264467296744931e-04 1.095588555074187454e-05 -3.104995348008563524e-03 2.412456348752357353e-05 4.995662550483095601e-05 -3.057999728745034416e-03 -1.268891719224405691e-04 -1.220385208617586034e-04 -2.724003439328722721e-03 1.911222727455551490e-04 -6.704273964278252692e-05 -3.003991269614771174e-03 -1.248746596086042790e-04 -5.004355555236329018e-05 -3.079004378355983031e-03 2.521573280915242674e-02 3.845074325253546726e-03 6.635972297313340144e-03 2.880130941653537974e-03 -1.740478933346620858e-04 -3.218880254025563523e-03 1.587087786096543982e-02 -8.475972217849861434e-03 2.836766448714878736e-03 1.698222753549146521e-04 4.965063099357443742e-03 4.459936525803067167e-03 6.799642415189559004e-04 2.592012624295407779e-03 9.279909405531849885e-04 -1.617967883835562783e-03 -1.265010259532323373e-03 -8.130479507105572729e-04 2.863065421261488941e-03 -1.370025393919710628e-03 -1.632863991149268801e-03 2.483197750817755112e-03 1.522929619448790779e-03 -4.826920478373266515e-03 9.865997459448364384e-03 -1.309007200329683884e-03 3.742031057510005891e-05 6.112292362822517382e-05 -1.604285052535409128e-05 -3.018997286377409026e-03 -2.087872551027512995e-05 -4.204221920523367151e-05 -2.979000256902534279e-03 -1.187859551948483025e-05 -3.204226878659327955e-05 -2.982000032189719915e-03 -7.687767685848113138e-05 4.895748436628849130e-05 -3.003003827424361848e-03 9.120652682213872288e-06 -5.604203002677654631e-05 -2.963998836802256200e-03 8.912213818042077809e-05 2.095741110293078345e-05 -2.998996670789417802e-03 -7.876866441758262674e-06 -8.042867388402638351e-06 -3.024000209533595981e-03 -7.488025089236900191e-05 3.795837600251299767e-05 -2.940003590085826183e-03 9.121341852162752310e-06 4.395775729621185694e-05 -2.979000254564658726e-03 1.170036099284171166e-04 -7.000136760507612245e-05 -8.999424313331280526e-05 -1.640052317458183355e-04 -7.699807100085681577e-05 1.269944133501448404e-04 -1.729942332686271698e-04 -2.280019344768030685e-04 -1.460038120414512979e-04 2.020058393926073433e-04 7.299782858047568104e-05 -1.419928092328045914e-04 2.099984412640261368e-05 -4.299997390519829429e-05 3.001464778913743468e-06 -2.009941767032063142e-04 1.039981583025967283e-04 -1.410096592474016685e-04 1.070003844959484523e-04 1.789998311345938724e-04 -5.998180683013559234e-06 -1.600564686274189886e-05 1.700198323978018838e-05 1.389991073151890179e-04 3.100328820085550887e-05 3.899884149955845891e-05 -7.999929051202274053e-05 8.818005251493635233e-03 -9.280089885024683793e-04 -1.466277664337050529e-04 5.101007118332273951e-03 -9.400067302831336194e-04 -1.927789556613824433e-04 -1.566793305542711900e-01 -2.585762891698209758e-03 8.064656553961435659e-03 3.660769758831056934e-03 4.570078541891340815e-03 5.742084281319138721e-03 6.830063993486345641e-04 9.959975085774570424e-04 -1.379863085828160821e-04 -8.284243567877836931e-04 -1.877852115085011783e-03 1.038499289932118784e-02 6.860101366852278332e-04 1.867996442805908933e-03 -2.129985493602862615e-04 2.286103936200364027e-03 2.673962751135014644e-03 -2.500944821148933309e-03 5.449086875216937456e-04 -3.761969660537713925e-03 2.170075527592793714e-03 -7.200040634012849815e-05 5.300021232612921358e-05 1.099631666703025906e-05 1.100842296115237794e-05 4.399707075676175655e-05 -2.060001757007330083e-04 -1.439971540982251848e-04 4.599913447892906861e-05 -6.900651591553798889e-05 -1.199971340200146260e-05 -5.000010402136846626e-05 -7.999779754603251867e-06 9.600331319631477136e-05 1.899877642902919050e-05 -8.099636010050121119e-05 1.400854431262940522e-05 -9.002988298065156883e-06 -2.099993021129975079e-04 6.004674247335233348e-06 -6.300164931588795171e-05 -1.159988623679614471e-04 2.800229207243842299e-05 -3.700083005449804081e-05 -5.699833518593334252e-05 -2.799728656839228636e-05 -1.900092798648155362e-05 -6.700087074404230143e-05 -2.060725819851896151e-02 2.527946110197784937e-02 3.138380247728376343e-02 -2.160813457347863283e-03 -1.287151214307135510e-04 1.997391385332527441e-02 3.812269054642711957e-02 8.548776552054488179e-03 5.687943123805300205e-02 1.278173671023209723e-03 -3.382837435444747270e-02 4.419953170116244084e-02 -6.947984844395373649e-04 -5.067215859382326283e-04 1.959897890963620271e-02 -1.160822541559253327e-03 9.072875406729631088e-04 2.021693988578754722e-02 4.763056899426580193e-04 4.952414996498284532e-04 1.706001238999411626e-02 3.280763701677493253e-04 -5.186788185769392609e-04 2.267202073434340312e-02 -5.692808830314814023e-03 -2.557140004997498573e-04 1.985777182796292714e-02 -2.228540872086737451e-04 2.492976097689695246e-04 2.097898741020590499e-02 -1.278536339981188260e-04 -3.702691434885765843e-06 2.096299486567579015e-02 1.112230613873571782e-05 4.305578804901729776e-06 2.155400041190259561e-02 -6.586442122922117279e-05 -1.546990253830397496e-04 2.122499953096728884e-02 9.112611495063713827e-05 -1.756958590627949034e-04 2.145700622165827923e-02 1.421537120341510472e-04 1.212945734959760446e-04 2.078500408825062831e-02 1.415419914830347478e-05 -3.670553893151822937e-05 2.077000111608225813e-02 -1.028597797314016098e-04 2.994298369069355036e-07 2.111399582684564749e-02 -3.078623113056166483e-04 -8.699530624661276518e-06 2.117598760661340215e-02 4.514071428094171745e-05 7.299143819225818085e-06 2.110200175429842104e-02 9.112979713979883192e-05 2.302907451064046316e-06 2.137000369809725908e-02 -1.985900299496897223e-05 -4.770091870284232387e-05 2.109399988722752972e-02 -4.585912981238421285e-05 -1.700841638398140996e-06 2.109799817630455751e-02 1.181339373473182420e-04 3.730145434930775048e-05 2.126900430143240442e-02 -2.586549168289583141e-05 -1.369864556103485880e-05 2.125399916070972589e-02 -3.486873602188285789e-05 3.302495707845806368e-06 2.133399855312571869e-02 -1.187126384235239882e-05 5.130337089520315401e-05 2.139699880911408170e-02 -1.386576030866679947e-05 -4.469856988709139975e-05 2.126000008886503104e-02 -3.522701013736488011e-04 -2.925386058131914722e-05 -1.792501394664225076e-02 4.938578419204956663e-04 -2.382991263192101679e-04 -2.107097653072512525e-02 -5.791303324994661857e-04 -2.703024118995595872e-04 -2.136201977023943072e-02 4.087590169232126354e-05 7.746952168906924129e-04 -2.149500933895092530e-02 1.708498949221668253e-04 4.807040896752956560e-04 -2.086199987756625490e-02 -6.213943544077701875e-05 6.570044415048869712e-05 -2.113200348150173769e-02 3.438492850585823371e-04 -5.052961023948206176e-04 -2.086597885358051560e-02 -1.121494159729398768e-04 -4.329607148444179955e-05 -2.088900397239396717e-02 -5.861281703712723163e-04 -2.653031578422447990e-04 -2.141502012612493677e-02 -5.684289814432179171e-03 1.175719058080217491e-05 -1.744023165195956321e-02 5.607749825072903642e-04 8.107299564837675649e-04 -1.901598867681230515e-02 2.450038430091796464e-04 1.861650808150565849e-03 -2.461601644022490959e-02 -2.095120787477786333e-03 1.646955708970077492e-04 -2.158808767016674041e-02 2.149008874980314922e-04 -1.273314177244548899e-03 -2.214797321685622183e-02 1.282778445105902483e-03 -7.027205488576914133e-05 -1.911794678565336206e-02 7.818360956667089190e-03 -9.129134287813723062e-03 -9.039552207179708462e-03 -2.188159040799409708e-03 -1.229108585004615066e-05 -2.065208894861186514e-02 9.809415346203834846e-03 7.612501611930908539e-03 -3.461070851303119783e-02 4.857071080757916362e-06 -2.729841736606777102e-05 -2.104799943475079566e-02 -5.214126318543061013e-05 7.170107432071361545e-05 -2.108700315940163772e-02 1.186013064794869560e-05 3.170052799015438285e-05 -2.112199998612409105e-02 -5.137672813273983302e-06 -7.530025264466446713e-05 -2.117799916130581189e-02 7.486038740794969889e-05 -5.629963475209493834e-05 -2.112999617305984928e-02 -5.413986462085129247e-05 -1.429943450525736245e-05 -2.112300202152221640e-02 -6.013813631840420927e-05 8.699974722995653479e-06 -2.116500259189683930e-02 7.686183773502423540e-05 2.769988162840223770e-05 -2.116399728251867202e-02 1.038598870301773064e-04 3.270054102117940346e-05 -2.111599625398912980e-02
9.878890678239084233e-03 -1.271052705944357645e-05 -1.201025976547131224e-01 2.246960699691208721e-03 6.200120922512044773e-04 9.770827086308918070e-04 3.123828938247343468e-03 -2.274943508755320181e-03 4.157159462486435982e-03 5.039288593501737613e-04 -1.923976150406030280e-03 1.710047799736260418e-03 -1.441139366510120999e-03 1.948050183273036719e-03 3.459913699753896545e-03 1.658488542906526384e-04 1.305249799771583877e-05 3.712006571899691132e-03 2.142898108589257403e-02 -5.511011702618313912e-03 3.589507404402496652e-04 2.885849891187187641e-03 -1.195000037198745207e-05 3.686117687082984731e-03 1.969783250290363733e-02 6.813044746418413060e-03 4.244705522277577615e-03 -1.321380842589978241e-04 4.818025956926255938e-08 3.390994621695384448e-03 3.881025480752752125e-06 6.704143855710770010e-05 2.922999210256036016e-03 4.986945834833533283e-05 1.204541486091694876e-05 3.206001862929101862e-03 4.087435893594275121e-05 -2.195629360192900470e-05 3.085001978597881091e-03 8.187627980859794972e-05 -6.495700623461393491e-05 3.037004257841226934e-03 -2.112077877762985525e-05 -9.579322159326030117e-07 2.965999156282701169e-03 -3.411697140577856641e-05 -7.895926891967878949e-05 2.870999732865498703e-03 2.487466750229784654e-05 8.043619678417600764e-06 3.078000901737866241e-03 6.286732053092452209e-05 9.004617027505325136e-05 3.260001286384417267e-03 5.862035438344560260e-06 -2.951970326983911355e-06 3.388000283708917856e-03 -4.612661199849049849e-05 3.804412895757195351e-05 3.109997585194785620e-03 -4.812314369825066584e-05 -4.957088762502080516e-06 3.023998113476858516e-03 2.687598937328310143e-05 3.204316442055418930e-05 3.046000642942992779e-03 5.687426024237561404e-05 -4.395627777205891862e-05 3.087002942040435825e-03 -8.412542090113893248e-05 -9.562666185033720795e-07 3.079996590763106612e-03 4.874366801536026623e-06 -1.195626541507550769e-05 3.085000370869606361e-03 -2.412098002862125032e-05 2.042141021730246525e-06 2.970998991582209439e-03 2.987588442191026802e-05 2.043190430180793669e-06 3.048001190436590378e-03 4.480917318524281229e-04 -1.710323358713785322e-04 -2.255979330563972866e-03 4.011798790461811850e-05 1.809589381221257426e-04 -2.894000934650885204e-03 -4.188928405736495040e-04 -3.350370729150070376e-04 -2.638012310033575978e-03 -1.990000658914757191e-05 4.979653367222605957e-04 -2.446007872669431118e-03 1.171275829961567947e-04 5.955489355971919078e-06 -3.132995317814568463e-03 2.412561361005551106e-05 3.895625688326043596e-05 -3.083999572765467028e-03 -1.258879902353361756e-04 -1.210389328009211021e-04 -2.753003412758676591e-03 1.931235006376846159e-04 -5.904316654344222851e-05 -3.033991301567288273e-03 -1.278733949093552444e-04 -4.704399271533351039e-05 -3.110004543023008917e-03 2.522673314039504053e-02 3.852074203217520539e-03 6.627972646005795068e-03 2.889131673054046168e-03 -1.760481555817423871e-04 -3.236879859165643809e-03 1.586987818908371095e-02 -8.472972330489532064e-03 2.828766365468173873e-03 1.718226113064312522e-04 4.978062984367778374e-03 4.451936422941280176e-03 6.679647387982972284e-04 2.603012463556708244e-03 9.159902959587286515e-04 -1.608967273814000546e-03 -1.266010479246118406e-03 -8.280475700311896179e-04 2.872066102538275555e-03 -1.384025641987785948e-03 -1.649863426157117084e-03 2.483198273136514103e-03 1.513929435138358084e-03 -4.839920350761309914e-03 9.872998147778972236e-03 -1.314007446832674009e-03 2.042066652567838404e-05 6.912345612680406053e-05 -1.204304110106630622e-05 -3.031997017309568960e-03 -2.287803090361568214e-05 -3.904245866206497624e-05 -2.996000380861723635e-03 -1.787790404380172168e-05 -3.304250511103671000e-05 -2.999000262321260130e-03 -7.887695093386350804e-05 3.995723073287157418e-05 -3.021003781249460059e-03 1.612096668952585677e-05 -7.104214892860037016e-05 -2.971998339082409287e-03 8.012290483168421813e-05 1.195714877269159027e-05 -3.017996909659544091e-03 -3.876043408967277479e-06 2.956845922596547240e-06 -3.044000202586997356e-03 -7.887975361966290523e-05 4.895820899984432845e-05 -2.952003908913473917e-03 9.121994169176420440e-06 4.495753045138523978e-05 -2.995000268727548726e-03 1.219997719788537077e-04 -8.300003880598221591e-05 4.006144694485611810e-06 -1.590068934686709307e-04 -6.699749362723581654e-05 1.679944751386522230e-04 -1.689982160785310280e-04 -2.180005481858501880e-04 -4.800379102678213632e-05 1.830019067255015579e-04 9.499921870133503970e-05 -4.499389492994311377e-05 3.599553867494923408e-05 -2.899848280524349025e-05 1.090018770044545271e-04 -2.039982746176629950e-04 1.229995926070014676e-04 -4.001005088135032607e-05 8.899768126396715698e-05 1.590007809650348717e-04 6.000136983558219315e-05 -1.900728352958902753e-05 7.002552701591298386e-06 1.789991268930863960e-04 3.799907279204438505e-05 1.200029633422969220e-05 2.300137723780006161e-05 8.731012556267623778e-03 -9.080114582091890338e-04 -3.256315925366234454e-04 5.061012674421882206e-03 -9.170086271457754965e-04 -3.287809104575614271e-04 -1.557813220615740513e-01 -2.555766543813218095e-03 7.856692696146191229e-03 3.641778754993182585e-03 4.514075409303341425e-03 5.520084301784092262e-03 6.690135623102207250e-04 9.909950242479232708e-04 -3.139868076223050635e-04 -8.114146198196798415e-04 -1.871855516889643026e-03 1.014599350673124969e-02 6.730152072116741494e-04 1.842994680762958734e-03 -3.379987241710642591e-04 2.285107772554481956e-03 2.632961405031584295e-03 -2.595944280493170126e-03 5.399155560520347901e-04 -3.726972038495882534e-03 2.002074827922989235e-03 -6.599817923608006654e-05 3.699942785102028781e-05 -4.400321211251965201e-05 2.600856859345470443e-05 2.199700230285581894e-05 -2.099992529734515871e-04 -1.629946434947086820e-04 2.799827033435811139e-05 -1.310070343543317042e-04 -1.599765855091960328e-05 -2.600080978157147106e-05 -5.800028285785101327e-05 9.200405165976698139e-05 2.599852435999159536e-05 -9.899662221151717156e-05 1.900894759901508544e-05 -1.400313399049551054e-05 -2.199990276106285922e-04 2.500521143823165090e-05 -5.300184850516274779e-05 -1.289982304373401222e-04 1.500389038243640205e-05 -2.400137281087773590e-05 -9.599904883166859447e-05 -3.499605475093081446e-05 -6.001347840679906082e-06 -9.700134007303723720e-05 -2.040624775071836483e-02 2.515345727255932293e-02 3.112481244881379686e-02 -2.188804430568943703e-03 -4.171821863057169116e-05 1.975391147988053708e-02 3.789170573238272166e-02 8.596771458781885325e-03 5.650742115134956001e-02 1.239186200612047567e-03 -3.368837864815231453e-02 4.389452812844589491e-02 -6.557911821707353888e-04 -5.937241826472728582e-04 1.941798173138307645e-02 -1.169811373096577706e-03 8.692836488300343962e-04 1.994194005831054217e-02 4.373118028024472557e-04 5.012394035167692637e-04 1.691001071695378416e-02 3.090828087776707235e-04 -5.126810437922845430e-04 2.251401987572752492e-02 -5.595803233642974647e-03 -2.847160329832136160e-04 1.971977618916891106e-02 -2.398456039640836385e-04 2.142946599242017021e-04 2.076998721436744411e-02 -1.558463292980451697e-04 -3.570522151093281731e-05 2.078299417934771631e-02 4.312991931714875324e-05 -4.969711167105973049e-05 2.136600248074382175e-02 -3.485824344085315305e-05 -1.697012046793036372e-04 2.107300100612142721e-02 7.713309389736042220e-05 -1.556982725058720469e-04 2.128600536817005714e-02 1.101597066434818886e-04 1.322925144148257319e-04 2.063800262936464625e-02 -6.838796041242361536e-06 1.629205310305092370e-05 2.059899950968187982e-02 -6.985186737863380800e-05 1.629665350412033974e-05 2.091999694396986034e-02 -3.288541005414319027e-04 2.429763607806321481e-05 2.097498628379618549e-02 1.814646377751200518e-05 1.729716588996769744e-05 2.096100051318888075e-02 1.271371996835141485e-04 -8.699701094444748048e-06 2.118800532017248162e-02 -2.685134825481451346e-05 -4.870357864729670211e-05 2.090599961653409611e-02 -5.585185485306962285e-05 3.229664254056117354e-05 2.091999728721756144e-02 1.021406547570248514e-04 8.729914171376610733e-05 2.110500294116306880e-02 -4.858114959683275081e-06 -5.701228185721369474e-06 2.107299990259375172e-02 1.213806742872986785e-05 -4.469992295775559207e-05 2.116600114769454088e-02 -8.626835078357037849e-07 3.630037076893597440e-05 2.118599946990604513e-02 -5.085873437842071849e-05 -6.870099367241198831e-05 2.108699892262068387e-02 -3.252825368987344898e-04 2.750456679939823551e-06 -1.761901330115215811e-02 5.048421283685689508e-04 -2.322936623037625398e-04 -2.068497616822116691e-02 -5.961454485113376264e-04 -2.292971244528831088e-04 -2.099002104412801481e-02 1.586165409551187739e-05 7.287001845208154966e-04 -2.114600970511951519e-02 1.628364546758965126e-04 4.257087604394840710e-04 -2.053299942386191054e-02 -3.715362357743402116e-05 -8.294655721964113405e-06 -2.078500141464853165e-02 3.768357030764120374e-04 -4.812913928524618890e-04 -2.053197785036924017e-02 -1.591628984248879706e-04 3.708672339699986218e-06 -2.055700655293747625e-02 -5.751397076738869489e-04 -2.302991399648477615e-04 -2.113102017468130103e-02 -5.610299048746336843e-03 -2.823966317512881756e-05 -1.721422807171613112e-02 5.197649910475968856e-04 7.917334621483893041e-04 -1.877099007721744553e-02 2.549952078071014358e-04 1.806653791840970693e-03 -2.440501525343555245e-02 -2.077129279342514005e-03 1.886985199598884065e-04 -2.137908727765203132e-02 2.538905130543638554e-04 -1.261310592444791221e-03 -2.189297179911323804e-02 1.239770019086959725e-03 -1.426907224114433261e-05 -1.890994933079807178e-02 7.733353205723626604e-03 -9.043131499131010220e-03 -8.847556887918195043e-03 -2.164168397993209304e-03 -1.287843750129278265e-06 -2.042208812748064553e-02 9.783401945909760838e-03 7.556506282611332934e-03 -3.428270877812347739e-02 -4.814738622762748806e-05 7.031836873957255425e-07 -2.093800199003553394e-02 -2.014523426495535283e-05 9.670243868626192808e-05 -2.098900221086958881e-02 3.485503503885666060e-05 2.470228220636887760e-05 -2.099699895041636996e-02 9.855397579321693285e-06 -8.429785416348776605e-05 -2.100799842305120513e-02 7.185395275912394677e-05 -5.297378138785104238e-06 -2.097099701843614661e-02 -5.214612544541651767e-05 -1.297252692074287725e-06 -2.096900212453459839e-02 -6.314371117811145217e-05 -3.829809474310834252e-05 -2.102900204783093516e-02 1.208560694185904468e-04 -6.298153750854820830e-06 -2.102299500888833717e-02 6.385364658837623815e-05 1.970274154502676421e-05 -2.096299769865447513e-02