-1.412881119879999915e+03
-1.412881121330000042e+03
-1.412881124029999910e+03
-1.412881128290000106e+03
-1.412881134100000054e+03
