2.514029999999999987e+00 3.947550000000000114e+00 2.887350000000000083e+00 1.133502000000000010e+01 4.785870000000000068e+00 1.356190000000000007e+00 2.083849999999999980e+00 1.407529999999999948e+00 1.356219999999999981e+00 6.086490000000000400e+00 3.947550000000000114e+00 2.887329999999999952e+00 4.190080000000000027e+00 4.785870000000000068e+00 1.356179999999999941e+00 5.656320000000000014e+00 1.407520000000000104e+00 1.356200000000000072e+00 9.658960000000000434e+00 3.947540000000000049e+00 2.887340000000000018e+00 7.762540000000000440e+00 4.785870000000000068e+00 1.356190000000000007e+00 9.228799999999999670e+00 1.407510000000000039e+00 1.356209999999999916e+00 1.193581999999999965e+01 5.639890000000000292e+00 5.616439999999999877e+00 2.684660000000000046e+00 2.261530000000000040e+00 5.616469999999999629e+00 4.790879999999999583e+00 5.639870000000000161e+00 5.616430000000000256e+00 6.257130000000000081e+00 2.261530000000000040e+00 5.616450000000000387e+00 8.363360000000000127e+00 5.639870000000000161e+00 5.616450000000000387e+00 9.829599999999999227e+00 2.261530000000000040e+00 5.616460000000000008e+00 3.114840000000000053e+00 4.801569999999999894e+00 7.147590000000000110e+00 6.687299999999999578e+00 4.801549999999999763e+00 7.147599999999999731e+00 1.025976999999999961e+01 4.801560000000000272e+00 7.147579999999999600e+00 3.715650000000000119e+00 5.655569999999999986e+00 1.140784999999999982e+01 1.253660999999999959e+01 6.493890000000000384e+00 9.876689999999999969e+00 3.285470000000000113e+00 3.115540000000000198e+00 9.876699999999999591e+00 7.288100000000000023e+00 5.655569999999999986e+00 1.140784999999999982e+01 5.391689999999999650e+00 6.493900000000000006e+00 9.876689999999999969e+00 6.857940000000000147e+00 3.115549999999999820e+00 9.876709999999999212e+00 1.086056999999999917e+01 5.655569999999999986e+00 1.140784999999999982e+01 8.964150000000000063e+00 6.493900000000000006e+00 9.876689999999999969e+00 1.043041000000000018e+01 3.115540000000000198e+00 9.876699999999999591e+00 1.047800000000000065e+00 7.325940000000000119e+00 2.887350000000000083e+00 3.154030000000000111e+00 1.070429000000000030e+01 2.887340000000000018e+00 2.723869999999999791e+00 8.164260000000000517e+00 1.356219999999999981e+00 4.620280000000000165e+00 7.325929999999999609e+00 2.887340000000000018e+00 6.726510000000000211e+00 1.070428000000000068e+01 2.887340000000000018e+00 6.296339999999999826e+00 8.164249999999999119e+00 1.356209999999999916e+00 8.192740000000000578e+00 7.325919999999999987e+00 2.887329999999999952e+00 1.029898000000000025e+01 1.070429000000000030e+01 2.887340000000000018e+00 9.868800000000000239e+00 8.164249999999999119e+00 1.356209999999999916e+00 3.324669999999999792e+00 9.018259999999999721e+00 5.616460000000000008e+00 6.897140000000000271e+00 9.018269999999999342e+00 5.616450000000000387e+00 1.046960999999999942e+01 9.018269999999999342e+00 5.616469999999999629e+00 1.648600000000000065e+00 8.179949999999999832e+00 7.147590000000000110e+00 3.754849999999999799e+00 1.155829999999999913e+01 7.147599999999999731e+00 5.221079999999999721e+00 8.179949999999999832e+00 7.147590000000000110e+00 7.327320000000000277e+00 1.155829999999999913e+01 7.147590000000000110e+00 8.793540000000000134e+00 8.179940000000000211e+00 7.147599999999999731e+00 1.089977999999999980e+01 1.155828999999999951e+01 7.147579999999999600e+00 2.249400000000000066e+00 9.033950000000000813e+00 1.140783000000000058e+01 4.355660000000000309e+00 1.241230000000000011e+01 1.140784999999999982e+01 3.925469999999999793e+00 9.872270000000000323e+00 9.876709999999999212e+00 5.821880000000000166e+00 9.033950000000000813e+00 1.140784000000000020e+01 7.928110000000000213e+00 1.241231999999999935e+01 1.140784000000000020e+01 7.497939999999999827e+00 9.872279999999999944e+00 9.876699999999999591e+00 9.394349999999999312e+00 9.033939999999999415e+00 1.140784000000000020e+01 1.150059000000000076e+01 1.241230999999999973e+01 1.140784999999999982e+01 1.107039999999999935e+01 9.872289999999999566e+00 9.876709999999999212e+00 1.197500999999999927e+01 1.154261999999999944e+01 1.356179999999999941e+00 4.830099999999999838e+00 1.154261999999999944e+01 1.356190000000000007e+00 8.402559999999999363e+00 1.154260999999999981e+01 1.356190000000000007e+00 1.687810000000000032e+00 1.408267000000000024e+01 2.887350000000000083e+00 3.363879999999999981e+00 1.492101000000000077e+01 1.356200000000000072e+00 5.260290000000000354e+00 1.408267000000000024e+01 2.887340000000000018e+00 6.936340000000000394e+00 1.492099999999999937e+01 1.356209999999999916e+00 8.832739999999999370e+00 1.408267000000000024e+01 2.887340000000000018e+00 1.050882000000000005e+01 1.492099999999999937e+01 1.356209999999999916e+00 1.257582999999999984e+01 1.239661000000000080e+01 5.616439999999999877e+00 5.430900000000000283e+00 1.239661000000000080e+01 5.616450000000000387e+00 9.003360000000000696e+00 1.239662000000000042e+01 5.616439999999999877e+00 3.964679999999999982e+00 1.577500999999999998e+01 5.616469999999999629e+00 7.537149999999999572e+00 1.577500000000000036e+01 5.616460000000000008e+00 1.110960999999999999e+01 1.577500000000000036e+01 5.616469999999999629e+00 2.288619999999999877e+00 1.493668000000000085e+01 7.147590000000000110e+00 5.861089999999999911e+00 1.493668000000000085e+01 7.147599999999999731e+00 9.433540000000000703e+00 1.493668000000000085e+01 7.147590000000000110e+00 1.317664000000000080e+01 1.325062999999999924e+01 9.876689999999999969e+00 6.031699999999999839e+00 1.325062999999999924e+01 9.876689999999999969e+00 9.604160000000000252e+00 1.325064000000000064e+01 9.876689999999999969e+00 2.889419999999999877e+00 1.579068999999999967e+01 1.140784000000000020e+01 4.565489999999999604e+00 1.662901000000000096e+01 9.876699999999999591e+00 6.461899999999999977e+00 1.579069999999999929e+01 1.140784000000000020e+01 8.137940000000000396e+00 1.662901000000000096e+01 9.876720000000000610e+00 1.003434000000000026e+01 1.579068999999999967e+01 1.140784000000000020e+01 1.171043000000000056e+01 1.662902000000000058e+01 9.876720000000000610e+00 2.327809999999999935e+00 2.083942000000000050e+01 2.887350000000000083e+00 5.900280000000000413e+00 2.083942000000000050e+01 2.887340000000000018e+00 9.472759999999999181e+00 2.083941000000000088e+01 2.887340000000000018e+00 3.794039999999999857e+00 1.746103000000000094e+01 2.887340000000000018e+00 1.261501999999999946e+01 1.829936000000000007e+01 1.356190000000000007e+00 7.366520000000000401e+00 1.746103000000000094e+01 2.887329999999999952e+00 5.470100000000000406e+00 1.829935000000000045e+01 1.356200000000000072e+00 1.093898000000000081e+01 1.746103000000000094e+01 2.887340000000000018e+00 9.042559999999999931e+00 1.829936000000000007e+01 1.356179999999999941e+00 1.321584000000000003e+01 1.915336999999999890e+01 5.616439999999999877e+00 6.070899999999999963e+00 1.915336999999999890e+01 5.616439999999999877e+00 9.643370000000000886e+00 1.915335999999999927e+01 5.616439999999999877e+00 2.928620000000000001e+00 2.169342999999999932e+01 7.147579999999999600e+00 6.501089999999999591e+00 2.169341999999999970e+01 7.147590000000000110e+00 1.007354999999999912e+01 2.169342999999999932e+01 7.147590000000000110e+00 4.394860000000000433e+00 1.831503000000000014e+01 7.147579999999999600e+00 7.967319999999999958e+00 1.831503999999999976e+01 7.147590000000000110e+00 1.153978999999999999e+01 1.831503999999999976e+01 7.147599999999999731e+00 3.529440000000000133e+00 2.254741999999999891e+01 1.140784000000000020e+01 7.101899999999999658e+00 2.254742999999999853e+01 1.140784999999999982e+01 1.067436999999999969e+01 2.254741999999999891e+01 1.140784000000000020e+01 4.995659999999999989e+00 1.916903999999999897e+01 1.140784999999999982e+01 1.381662999999999997e+01 2.000737000000000165e+01 9.876680000000000348e+00 8.568130000000000024e+00 1.916904999999999859e+01 1.140784000000000020e+01 6.671700000000000408e+00 2.000737000000000165e+01 9.876680000000000348e+00 1.214059999999999917e+01 1.916904999999999859e+01 1.140784000000000020e+01 1.024417000000000044e+01 2.000738000000000127e+01 9.876680000000000348e+00 5.126699999999999591e-01 2.677540000000000031e+00 2.121739999999999959e+00 2.220089999999999897e+00 3.521700000000000053e+00 7.424300000000000344e-01 9.365030000000000854e+00 3.521700000000000053e+00 7.424300000000000344e-01 4.085119999999999862e+00 2.677540000000000031e+00 2.121750000000000025e+00 5.792570000000000441e+00 3.521710000000000118e+00 7.424199999999999688e-01 7.657589999999999897e+00 2.677529999999999966e+00 2.121750000000000025e+00 1.162897000000000070e+01 5.211710000000000065e+00 3.501189999999999802e+00 2.377810000000000201e+00 1.833380000000000010e+00 3.501250000000000195e+00 4.484029999999999738e+00 5.211710000000000065e+00 3.501199999999999868e+00 5.950289999999999857e+00 1.833380000000000010e+00 3.501230000000000064e+00 8.056509999999999394e+00 5.211719999999999686e+00 3.501189999999999802e+00 9.522740000000000649e+00 1.833360000000000101e+00 3.501240000000000130e+00 1.113469999999999960e+00 3.531540000000000123e+00 6.381999999999999673e+00 2.820889999999999898e+00 4.375709999999999766e+00 5.002679999999999794e+00 9.965830000000000410e+00 4.375709999999999766e+00 5.002679999999999794e+00 4.685929999999999929e+00 3.531540000000000123e+00 6.382010000000000183e+00 6.393360000000000376e+00 4.375700000000000145e+00 5.002679999999999794e+00 8.258399999999999963e+00 3.531550000000000189e+00 6.381999999999999673e+00 1.222977999999999987e+01 6.065739999999999910e+00 7.761440000000000339e+00 2.978629999999999889e+00 2.687380000000000102e+00 7.761499999999999844e+00 5.084850000000000314e+00 6.065730000000000288e+00 7.761440000000000339e+00 6.551079999999999792e+00 2.687380000000000102e+00 7.761479999999999713e+00 8.657320000000000348e+00 6.065719999999999779e+00 7.761440000000000339e+00 1.012355999999999945e+01 2.687390000000000168e+00 7.761479999999999713e+00 3.421699999999999964e+00 5.229720000000000368e+00 9.262930000000000774e+00 1.056663999999999959e+01 5.229720000000000368e+00 9.262930000000000774e+00 6.994180000000000064e+00 5.229729999999999990e+00 9.262919999999999376e+00 1.714269999999999960e+00 4.385559999999999903e+00 1.064226000000000028e+01 1.283057999999999943e+01 6.919740000000000002e+00 1.202171000000000056e+01 3.579419999999999824e+00 3.541399999999999881e+00 1.202172999999999981e+01 5.286730000000000373e+00 4.385550000000000281e+00 1.064225000000000065e+01 5.685660000000000380e+00 6.919730000000000381e+00 1.202168999999999954e+01 7.151880000000000237e+00 3.541399999999999881e+00 1.202173999999999943e+01 8.859199999999999520e+00 4.385550000000000281e+00 1.064223999999999926e+01 9.258119999999999905e+00 6.919740000000000002e+00 1.202169999999999916e+01 1.072436000000000078e+01 3.541389999999999816e+00 1.202172999999999981e+01 2.618930000000000202e+00 6.055900000000000283e+00 2.121809999999999974e+00 6.191379999999999661e+00 6.055920000000000414e+00 2.121789999999999843e+00 9.763849999999999696e+00 6.055900000000000283e+00 2.121809999999999974e+00 1.152660000000000018e+00 9.434279999999999333e+00 2.121760000000000090e+00 7.538799999999999946e-01 6.900019999999999598e+00 7.424199999999999688e-01 4.725139999999999674e+00 9.434269999999999712e+00 2.121750000000000025e+00 4.326349999999999696e+00 6.900030000000000108e+00 7.424300000000000344e-01 8.297599999999999199e+00 9.434269999999999712e+00 2.121750000000000025e+00 7.898819999999999730e+00 6.900019999999999598e+00 7.424199999999999688e-01 2.860110000000000152e+00 1.027843000000000018e+01 7.424199999999999688e-01 6.432579999999999742e+00 1.027844999999999942e+01 7.424300000000000344e-01 1.000505000000000067e+01 1.027844999999999942e+01 7.424199999999999688e-01 3.017830000000000013e+00 8.590109999999999246e+00 3.501230000000000064e+00 6.590290000000000425e+00 8.590120000000000644e+00 3.501230000000000064e+00 1.016276000000000046e+01 8.590120000000000644e+00 3.501230000000000064e+00 3.219720000000000137e+00 6.909930000000000128e+00 6.382049999999999557e+00 6.792200000000000237e+00 6.909919999999999618e+00 6.382060000000000066e+00 1.036467000000000027e+01 6.909930000000000128e+00 6.382049999999999557e+00 1.753479999999999928e+00 1.028828000000000031e+01 6.381999999999999673e+00 1.354689999999999950e+00 7.754039999999999822e+00 5.002670000000000172e+00 5.325940000000000119e+00 1.028828000000000031e+01 6.382010000000000183e+00 4.927150000000000141e+00 7.754030000000000200e+00 5.002670000000000172e+00 8.898410000000000153e+00 1.028828000000000031e+01 6.382010000000000183e+00 8.499610000000000554e+00 7.754050000000000331e+00 5.002659999999999663e+00 3.460910000000000153e+00 1.113246000000000002e+01 5.002670000000000172e+00 7.033380000000000187e+00 1.113246000000000002e+01 5.002670000000000172e+00 1.060585000000000022e+01 1.113246000000000002e+01 5.002670000000000172e+00 3.618630000000000013e+00 9.444119999999999848e+00 7.761479999999999713e+00 7.191099999999999604e+00 9.444129999999999470e+00 7.761479999999999713e+00 1.076356000000000002e+01 9.444129999999999470e+00 7.761479999999999713e+00 1.955480000000000107e+00 8.608050000000000423e+00 9.262919999999999376e+00 5.527949999999999697e+00 8.608040000000000802e+00 9.262930000000000774e+00 9.100429999999999353e+00 8.608040000000000802e+00 9.262930000000000774e+00 4.061720000000000219e+00 1.198647000000000062e+01 9.262930000000000774e+00 7.634190000000000254e+00 1.198647000000000062e+01 9.262930000000000774e+00 1.120664999999999978e+01 1.198645999999999923e+01 9.262919999999999376e+00 3.820530000000000204e+00 7.763930000000000220e+00 1.064230000000000054e+01 7.392990000000000173e+00 7.763939999999999841e+00 1.064230000000000054e+01 1.096546999999999983e+01 7.763939999999999841e+00 1.064230000000000054e+01 2.354270000000000085e+00 1.114231000000000016e+01 1.064226000000000028e+01 4.219420000000000393e+00 1.029813000000000045e+01 1.202172999999999981e+01 5.926750000000000185e+00 1.114231000000000016e+01 1.064226000000000028e+01 7.791900000000000048e+00 1.029813000000000045e+01 1.202172999999999981e+01 9.499209999999999710e+00 1.114230000000000054e+01 1.064223999999999926e+01 1.136435999999999957e+01 1.029813000000000045e+01 1.202173999999999943e+01 8.538830000000000808e+00 1.365677999999999948e+01 7.424100000000000144e-01 3.258939999999999948e+00 1.281264999999999965e+01 2.121809999999999974e+00 4.966359999999999886e+00 1.365676000000000023e+01 7.424199999999999688e-01 6.831389999999999851e+00 1.281264999999999965e+01 2.121809999999999974e+00 1.393880000000000008e+00 1.365677999999999948e+01 7.424199999999999688e-01 1.040386999999999951e+01 1.281265999999999927e+01 2.121809999999999974e+00 1.226899000000000051e+01 1.196845000000000070e+01 3.501199999999999868e+00 5.124060000000000059e+00 1.196846999999999994e+01 3.501199999999999868e+00 8.696509999999999962e+00 1.196846000000000032e+01 3.501199999999999868e+00 3.657840000000000202e+00 1.534684999999999988e+01 3.501230000000000064e+00 7.230290000000000106e+00 1.534684999999999988e+01 3.501240000000000130e+00 1.080274999999999963e+01 1.534685999999999950e+01 3.501230000000000064e+00 9.139630000000000365e+00 1.451078000000000046e+01 5.002679999999999794e+00 3.859729999999999883e+00 1.366666999999999987e+01 6.382049999999999557e+00 5.567169999999999952e+00 1.451078000000000046e+01 5.002679999999999794e+00 7.432190000000000296e+00 1.366666999999999987e+01 6.382060000000000066e+00 1.994690000000000074e+00 1.451078000000000046e+01 5.002679999999999794e+00 1.100465999999999944e+01 1.366666999999999987e+01 6.382060000000000066e+00 1.286979000000000006e+01 1.282248000000000054e+01 7.761440000000000339e+00 5.724849999999999994e+00 1.282245999999999952e+01 7.761440000000000339e+00 9.297330000000000538e+00 1.282246999999999915e+01 7.761440000000000339e+00 4.258639999999999759e+00 1.620086999999999833e+01 7.761499999999999844e+00 7.831089999999999662e+00 1.620088000000000150e+01 7.761490000000000222e+00 1.140356000000000058e+01 1.620086999999999833e+01 7.761490000000000222e+00 9.740429999999999922e+00 1.536478999999999928e+01 9.262909999999999755e+00 6.167980000000000018e+00 1.536478999999999928e+01 9.262919999999999376e+00 2.595499999999999918e+00 1.536480000000000068e+01 9.262909999999999755e+00 1.347059999999999924e+01 1.367647999999999975e+01 1.202169999999999916e+01 4.460549999999999571e+00 1.452067000000000085e+01 1.064230000000000054e+01 6.325660000000000061e+00 1.367647999999999975e+01 1.202169999999999916e+01 8.032999999999999474e+00 1.452067000000000085e+01 1.064230000000000054e+01 9.898120000000000474e+00 1.367647999999999975e+01 1.202168999999999954e+01 1.160547000000000040e+01 1.452067000000000085e+01 1.064228999999999914e+01 4.859429999999999694e+00 1.705489000000000033e+01 1.202172999999999981e+01 8.431910000000000238e+00 1.705488000000000071e+01 1.202173999999999943e+01 1.200436999999999976e+01 1.705488000000000071e+01 1.202172999999999981e+01 1.792680000000000051e+00 1.619100999999999857e+01 2.121750000000000025e+00 3.500109999999999832e+00 1.703518000000000043e+01 7.424300000000000344e-01 3.898940000000000072e+00 1.956940000000000168e+01 2.121809999999999974e+00 5.365149999999999864e+00 1.619102000000000174e+01 2.121750000000000025e+00 7.072580000000000311e+00 1.703519000000000005e+01 7.424199999999999688e-01 7.471400000000000041e+00 1.956940000000000168e+01 2.121809999999999974e+00 8.937609999999999388e+00 1.619102000000000174e+01 2.121760000000000090e+00 1.064504999999999946e+01 1.703519000000000005e+01 7.424300000000000344e-01 1.104387999999999970e+01 1.956940000000000168e+01 2.121799999999999908e+00 2.033889999999999976e+00 2.041350999999999871e+01 7.424199999999999688e-01 9.178839999999999222e+00 2.041349999999999909e+01 7.424199999999999688e-01 5.606370000000000076e+00 2.041350999999999871e+01 7.424300000000000344e-01 1.290898999999999930e+01 1.872520000000000095e+01 3.501189999999999802e+00 5.764050000000000118e+00 1.872520000000000095e+01 3.501199999999999868e+00 9.336520000000000152e+00 1.872521000000000058e+01 3.501189999999999802e+00 2.393489999999999895e+00 1.704502000000000095e+01 6.381999999999999673e+00 4.100929999999999964e+00 1.788918999999999926e+01 5.002670000000000172e+00 4.499740000000000073e+00 2.042341000000000051e+01 6.382049999999999557e+00 5.965939999999999799e+00 1.704502000000000095e+01 6.381990000000000052e+00 7.673379999999999868e+00 1.788919999999999888e+01 5.002679999999999794e+00 8.072210000000000107e+00 2.042340000000000089e+01 6.382060000000000066e+00 9.538410000000000721e+00 1.704503000000000057e+01 6.381990000000000052e+00 1.124585000000000079e+01 1.788918999999999926e+01 5.002670000000000172e+00 1.164466999999999963e+01 2.042340000000000089e+01 6.382049999999999557e+00 2.634710000000000107e+00 2.126753000000000071e+01 5.002679999999999794e+00 9.779650000000000176e+00 2.126753000000000071e+01 5.002670000000000172e+00 6.207160000000000011e+00 2.126752000000000109e+01 5.002659999999999663e+00 1.350979000000000063e+01 1.957921999999999940e+01 7.761449999999999960e+00 6.364869999999999806e+00 1.957920999999999978e+01 7.761449999999999960e+00 9.937340000000000728e+00 1.957920000000000016e+01 7.761449999999999960e+00 4.701719999999999899e+00 1.874321000000000126e+01 9.262930000000000774e+00 8.274190000000000822e+00 1.874320000000000164e+01 9.262930000000000774e+00 1.184666999999999959e+01 1.874320000000000164e+01 9.262919999999999376e+00 3.235500000000000043e+00 2.212152000000000029e+01 9.262930000000000774e+00 1.038043000000000049e+01 2.212152999999999992e+01 9.262919999999999376e+00 6.807979999999999698e+00 2.212153999999999954e+01 9.262919999999999376e+00 2.994289999999999896e+00 1.789904999999999902e+01 1.064225000000000065e+01 1.411060999999999943e+01 2.043320999999999898e+01 1.202168999999999954e+01 5.100550000000000139e+00 2.127741999999999933e+01 1.064231000000000016e+01 6.566749999999999865e+00 1.789902999999999977e+01 1.064225000000000065e+01 6.965659999999999741e+00 2.043321999999999861e+01 1.202169999999999916e+01 8.673019999999999285e+00 2.127741999999999933e+01 1.064230000000000054e+01 1.013922999999999952e+01 1.789903999999999940e+01 1.064225000000000065e+01 1.053813000000000066e+01 2.043320999999999898e+01 1.202169999999999916e+01 1.224549000000000021e+01 2.127740999999999971e+01 1.064230000000000054e+01