-2.588720576900000196e+03
-2.588750344630000200e+03
-2.588771668089999821e+03
-2.588784097639999800e+03
-2.588787099669999861e+03
-2.588780161579999913e+03
-2.588762733089999983e+03
-2.588734262439999839e+03
-2.588694120730000122e+03
-2.588641709240000182e+03
