1.182789999999999953e-01 -6.727790000000000159e-01 1.875466999999999995e+00 -1.185689999999999938e-01 6.716839999999999478e-01 -1.875278999999999918e+00 -1.183280000000000026e-01 6.716769999999999685e-01 -1.875488000000000044e+00 1.183440000000000047e-01 -6.725889999999999924e-01 1.875831000000000026e+00 -1.186740000000000017e-01 6.716830000000000300e-01 -1.875372999999999957e+00 -1.183769999999999961e-01 6.713799999999999768e-01 -1.875275999999999943e+00 1.183980000000000032e-01 -6.726229999999999709e-01 1.875602999999999909e+00 -1.184810000000000030e-01 6.717600000000000238e-01 -1.875167000000000028e+00 -1.184459999999999957e-01 6.716790000000000260e-01 -1.875383999999999940e+00 -1.185800000000000048e-01 6.723719999999999697e-01 -1.873947000000000029e+00 -1.182229999999999948e-01 6.718530000000000335e-01 -1.874355999999999911e+00 -1.183219999999999966e-01 6.724510000000000209e-01 -1.873741000000000101e+00 -1.180829999999999935e-01 6.717959999999999487e-01 -1.874179000000000039e+00 -1.185890000000000000e-01 6.724919999999999787e-01 -1.874020999999999937e+00 -1.184179999999999955e-01 6.718410000000000215e-01 -1.874036999999999953e+00 1.187529999999999974e-01 -6.723820000000000352e-01 1.875353999999999965e+00 1.188270000000000021e-01 -6.723390000000000200e-01 1.875158000000000103e+00 1.185739999999999988e-01 -6.723190000000000000e-01 1.875388999999999973e+00 1.181320000000000009e-01 -6.718079999999999607e-01 1.875073999999999907e+00 -1.183030000000000054e-01 6.725149999999999739e-01 -1.874884999999999913e+00 -1.183639999999999970e-01 6.724449999999999594e-01 -1.874576999999999938e+00 1.182399999999999979e-01 -6.720660000000000522e-01 1.874808999999999948e+00 -1.184420000000000056e-01 6.724210000000000464e-01 -1.874946999999999919e+00 -1.183460000000000067e-01 6.725670000000000259e-01 -1.874964000000000075e+00 1.182340000000000058e-01 -6.721420000000000172e-01 1.875008000000000008e+00 -1.185950000000000060e-01 6.723219999999999752e-01 -1.875078999999999940e+00 -1.183450000000000057e-01 6.726069999999999549e-01 -1.874778000000000056e+00 1.184299999999999936e-01 -6.723959999999999937e-01 1.875458000000000069e+00 1.184309999999999946e-01 -6.725309999999999899e-01 1.875769000000000020e+00 -1.185729999999999978e-01 6.717379999999999463e-01 -1.875234999999999985e+00 1.182909999999999934e-01 -6.724179999999999602e-01 1.875647000000000064e+00 1.182340000000000058e-01 -6.724409999999999554e-01 1.875764999999999905e+00 -1.185039999999999982e-01 6.719420000000000393e-01 -1.875151000000000012e+00 1.181460000000000010e-01 -6.723449999999999704e-01 1.875734000000000012e+00 1.182809999999999973e-01 -6.721599999999999797e-01 1.875761999999999929e+00 -1.183960000000000012e-01 6.718619999999999592e-01 -1.875124000000000013e+00 -1.182870000000000033e-01 6.727060000000000262e-01 -1.874069999999999903e+00 -1.182969999999999994e-01 6.722970000000000335e-01 -1.873772999999999911e+00 -1.182490000000000069e-01 6.724660000000000082e-01 -1.874095000000000066e+00 1.185999999999999971e-01 -6.722420000000000062e-01 1.875166000000000111e+00 1.185540000000000066e-01 -6.727649999999999464e-01 1.874802999999999997e+00 1.188639999999999974e-01 -6.724670000000000369e-01 1.875053000000000081e+00 1.188329999999999942e-01 -6.725489999999999524e-01 1.874883000000000077e+00 1.186289999999999983e-01 -6.724200000000000177e-01 1.875016000000000016e+00 1.187980000000000008e-01 -6.725069999999999659e-01 1.874868999999999897e+00 1.183049999999999935e-01 -6.716879999999999518e-01 1.874957999999999902e+00 1.181380000000000069e-01 -6.717959999999999487e-01 1.874754000000000032e+00 -1.184680000000000039e-01 6.725090000000000234e-01 -1.874946999999999919e+00 1.180670000000000053e-01 -6.718309999999999560e-01 1.874905000000000044e+00 1.180879999999999985e-01 -6.720409999999999995e-01 1.874929000000000068e+00 -1.184970000000000051e-01 6.722860000000000502e-01 -1.875035999999999925e+00 1.179650000000000004e-01 -6.716720000000000468e-01 1.874851999999999963e+00 1.182279999999999998e-01 -6.721850000000000325e-01 1.874781000000000031e+00 -1.181669999999999943e-01 6.723919999999999897e-01 -1.875191999999999970e+00 -1.185309999999999975e-01 6.719540000000000513e-01 -1.874643999999999977e+00 -1.185920000000000030e-01 6.718180000000000263e-01 -1.874805000000000055e+00 -1.184999999999999942e-01 6.720829999999999860e-01 -1.874811999999999923e+00 1.181699999999999973e-01 -6.723400000000000487e-01 1.875601999999999991e+00 -1.184810000000000030e-01 6.717769999999999575e-01 -1.874826000000000104e+00 1.180749999999999994e-01 -6.724120000000000097e-01 1.875696999999999948e+00 -1.183629999999999960e-01 6.719549999999999690e-01 -1.874976999999999894e+00 1.183020000000000044e-01 -6.723900000000000432e-01 1.875753999999999921e+00 -1.185080000000000022e-01 6.720399999999999707e-01 -1.874949999999999894e+00 -1.185549999999999937e-01 6.721530000000000005e-01 -1.874004000000000003e+00 -1.184430000000000066e-01 6.722350000000000270e-01 -1.874114000000000058e+00 -1.183659999999999990e-01 6.722150000000000070e-01 -1.873971999999999971e+00 -1.182700000000000001e-01 6.722010000000000485e-01 -1.874230999999999980e+00 -1.181780000000000053e-01 6.721580000000000332e-01 -1.873966000000000021e+00 -1.182200000000000056e-01 6.720779999999999532e-01 -1.874212999999999907e+00 1.183379999999999987e-01 -6.723440000000000527e-01 1.874889000000000028e+00 1.186259999999999953e-01 -6.725459999999999772e-01 1.874708999999999959e+00 1.185680000000000067e-01 -6.726900000000000102e-01 1.874514999999999931e+00 -1.183199999999999946e-01 6.724240000000000217e-01 -1.875126999999999988e+00 -1.186979999999999980e-01 6.725309999999999899e-01 -1.874913000000000052e+00 -1.184980000000000061e-01 6.723379999999999912e-01 -1.875180000000000069e+00 1.182819999999999983e-01 -6.717450000000000365e-01 1.874808999999999948e+00 -1.184329999999999966e-01 6.721399999999999597e-01 -1.874864000000000086e+00 1.178580000000000044e-01 -6.720110000000000250e-01 1.875029000000000057e+00 -1.183160000000000045e-01 6.723510000000000320e-01 -1.875134999999999996e+00 1.181259999999999949e-01 -6.716800000000000548e-01 1.874927000000000010e+00 -1.183410000000000017e-01 6.725600000000000467e-01 -1.875059999999999949e+00 1.182860000000000023e-01 -6.725579999999999892e-01 1.875675999999999899e+00 1.183349999999999957e-01 -6.727070000000000549e-01 1.875604999999999967e+00 1.181210000000000038e-01 -6.727440000000000087e-01 1.875610999999999917e+00 1.182119999999999976e-01 -6.726069999999999549e-01 1.875580999999999943e+00 -1.185299999999999965e-01 6.716159999999999908e-01 -1.875202999999999953e+00 1.182870000000000033e-01 -6.722650000000000015e-01 1.875817999999999985e+00 -1.186490000000000045e-01 6.721350000000000380e-01 -1.875326000000000048e+00 1.182679999999999981e-01 -6.724890000000000034e-01 1.875769999999999937e+00 -1.186689999999999967e-01 6.719370000000000065e-01 -1.874997000000000025e+00 -1.184400000000000036e-01 6.720300000000000162e-01 -1.874133999999999967e+00 -1.183830000000000021e-01 6.721179999999999932e-01 -1.874243000000000103e+00 -1.183049999999999935e-01 6.722420000000000062e-01 -1.874211999999999989e+00 1.185920000000000030e-01 -6.726480000000000237e-01 1.875213000000000019e+00 1.186050000000000021e-01 -6.725330000000000474e-01 1.875045999999999990e+00 1.187470000000000053e-01 -6.724930000000000074e-01 1.874891000000000085e+00 1.184120000000000034e-01 -6.724339999999999762e-01 1.875045999999999990e+00 1.186890000000000028e-01 -6.728739999999999721e-01 1.874870000000000037e+00 1.186699999999999977e-01 -6.727070000000000549e-01 1.874617999999999896e+00 1.180419999999999942e-01 -6.717079999999999718e-01 1.875234000000000067e+00 1.178809999999999997e-01 -6.718939999999999912e-01 1.875272999999999968e+00 1.179469999999999963e-01 -6.716509999999999980e-01 1.875350000000000072e+00 1.181370000000000059e-01 -6.712129999999999486e-01 1.875256999999999952e+00 -1.183499999999999969e-01 6.728140000000000231e-01 -1.874598999999999904e+00 1.179859999999999937e-01 -6.715240000000000098e-01 1.875267000000000017e+00 -1.185110000000000052e-01 6.730390000000000539e-01 -1.874392000000000058e+00 1.179779999999999995e-01 -6.716529999999999445e-01 1.875234000000000067e+00 -1.183320000000000066e-01 6.725989999999999469e-01 -1.874614999999999920e+00 5.190000000000000386e-04 -2.658000000000000206e-03 7.900000000000000121e-04 3.164910000000000223e-01 -4.362750000000000239e-01 -3.391149999999999998e-01 3.164699999999999736e-01 -4.365359999999999796e-01 -3.386299999999999866e-01 8.840000000000000201e-04 -2.279999999999999909e-03 9.600000000000000243e-05 3.161479999999999846e-01 -4.364259999999999806e-01 -3.388059999999999961e-01 1.546000000000000065e-03 -2.573000000000000200e-03 6.400000000000000524e-04 -3.173960000000000115e-01 4.333890000000000242e-01 3.374050000000000105e-01 -3.182090000000000196e-01 4.335829999999999962e-01 3.369550000000000045e-01 -3.174089999999999967e-01 4.336059999999999914e-01 3.373929999999999985e-01 -3.170930000000000137e-01 4.331470000000000042e-01 3.370460000000000123e-01 -3.173400000000000110e-01 4.332019999999999760e-01 3.375210000000000155e-01 -3.170729999999999937e-01 4.334970000000000212e-01 3.370270000000000210e-01 7.100000000000000462e-05 -1.221000000000000080e-03 5.619999999999999996e-04 3.162420000000000231e-01 -4.351189999999999780e-01 -3.389320000000000110e-01 3.165879999999999805e-01 -4.354939999999999922e-01 -3.387820000000000276e-01 4.910000000000000085e-04 -1.083999999999999894e-03 6.949999999999999798e-04 3.170299999999999785e-01 -4.351019999999999888e-01 -3.388390000000000013e-01 9.089999999999999773e-04 -1.637999999999999916e-03 5.000000000000000104e-04 -3.174620000000000219e-01 4.334779999999999744e-01 3.376129999999999964e-01 -3.182849999999999846e-01 4.341749999999999776e-01 3.378030000000000199e-01 -3.174469999999999792e-01 4.338600000000000234e-01 3.374079999999999857e-01 -3.170580000000000065e-01 4.345519999999999938e-01 3.375369999999999759e-01 -3.169609999999999927e-01 4.337329999999999797e-01 3.370659999999999767e-01 -3.179359999999999964e-01 4.341030000000000166e-01 3.374159999999999937e-01 3.164839999999999876e-01 -4.356470000000000065e-01 -3.377760000000000207e-01 3.166619999999999990e-01 -4.359669999999999934e-01 -3.381750000000000034e-01 3.164159999999999751e-01 -4.359359999999999902e-01 -3.376939999999999942e-01 1.113000000000000057e-03 -1.806000000000000097e-03 1.203000000000000076e-03 -3.169159999999999755e-01 4.334160000000000235e-01 3.375389999999999779e-01 -3.175510000000000277e-01 4.341929999999999956e-01 3.384480000000000266e-01 1.291999999999999963e-03 -1.222999999999999912e-03 1.090000000000000040e-03 -3.179679999999999729e-01 4.335249999999999937e-01 3.379039999999999822e-01 -3.172599999999999865e-01 4.340439999999999854e-01 3.382629999999999804e-01 1.392999999999999924e-03 -1.655000000000000004e-03 1.082999999999999978e-03 -3.169739999999999780e-01 4.330649999999999777e-01 3.375560000000000227e-01 -3.172019999999999840e-01 4.340879999999999739e-01 3.382530000000000259e-01 2.779999999999999811e-04 -6.650000000000000095e-04 -7.200000000000000182e-05 1.087999999999999991e-03 -1.172999999999999998e-03 2.889999999999999774e-04 1.038999999999999993e-03 -1.203999999999999992e-03 -6.799999999999999946e-05 1.494000000000000102e-03 -3.680000000000000003e-04 8.710000000000000294e-04 3.168889999999999763e-01 -4.352400000000000158e-01 -3.384389999999999898e-01 8.769999999999999584e-04 5.000000000000000240e-05 9.460000000000000093e-04 3.162360000000000171e-01 -4.351249999999999840e-01 -3.387180000000000191e-01 1.683000000000000034e-03 -4.800000000000000122e-05 1.052999999999999900e-03 3.167039999999999855e-01 -4.352849999999999775e-01 -3.382490000000000219e-01 3.166160000000000085e-01 -4.345859999999999723e-01 -3.369130000000000180e-01 3.164420000000000011e-01 -4.345300000000000273e-01 -3.372319999999999762e-01 3.168590000000000018e-01 -4.343620000000000259e-01 -3.367769999999999930e-01 -3.180580000000000074e-01 4.354629999999999890e-01 3.365299999999999958e-01 -3.180740000000000234e-01 4.352550000000000030e-01 3.369940000000000158e-01 -3.178090000000000082e-01 4.354520000000000057e-01 3.370150000000000090e-01 2.149999999999999947e-04 -5.379999999999999583e-04 1.090000000000000067e-04 6.179999999999999513e-04 -4.100000000000000047e-05 -4.800000000000000122e-05 2.099999999999999884e-05 -4.589999999999999896e-04 7.399999999999999623e-05 6.440000000000000412e-04 6.250000000000000130e-04 -7.770000000000000214e-04 3.164339999999999931e-01 -4.340970000000000106e-01 -3.383099999999999996e-01 8.239999999999999712e-04 2.169999999999999891e-04 -5.159999999999999656e-04 3.171059999999999990e-01 -4.340539999999999954e-01 -3.380859999999999976e-01 1.038999999999999993e-03 5.439999999999999957e-04 -7.209999999999999612e-04 3.170490000000000252e-01 -4.340680000000000094e-01 -3.377459999999999907e-01 3.166869999999999963e-01 -4.339720000000000244e-01 -3.376520000000000077e-01 3.172369999999999912e-01 -4.337779999999999969e-01 -3.378329999999999944e-01 3.169839999999999880e-01 -4.335470000000000157e-01 -3.377129999999999854e-01 -3.184290000000000176e-01 4.351260000000000128e-01 3.361439999999999984e-01 -3.184040000000000203e-01 4.348529999999999895e-01 3.357069999999999776e-01 -3.180180000000000229e-01 4.351439999999999753e-01 3.354269999999999752e-01 3.172229999999999772e-01 -4.352920000000000122e-01 -3.381390000000000229e-01 3.167730000000000268e-01 -4.351090000000000235e-01 -3.381620000000000181e-01 3.166410000000000058e-01 -4.354589999999999850e-01 -3.385070000000000023e-01 3.168460000000000165e-01 -4.350490000000000190e-01 -3.381370000000000209e-01 3.167099999999999915e-01 -4.349939999999999918e-01 -3.384989999999999943e-01 3.169969999999999732e-01 -4.346929999999999961e-01 -3.387069999999999803e-01 7.179999999999999967e-04 -1.242999999999999964e-03 3.930000000000000117e-04 1.074000000000000085e-03 -1.301999999999999989e-03 9.000000000000000567e-05 1.387999999999999911e-03 -1.547999999999999897e-03 2.599999999999999772e-04 1.335999999999999948e-03 -1.412999999999999977e-03 6.279999999999999775e-04 -3.177639999999999909e-01 4.346530000000000116e-01 3.369280000000000053e-01 1.139000000000000038e-03 -1.296000000000000060e-03 5.910000000000000539e-04 -3.181370000000000031e-01 4.347369999999999846e-01 3.371759999999999757e-01 1.579000000000000108e-03 -1.069000000000000072e-03 5.180000000000000143e-04 -3.173039999999999750e-01 4.346869999999999901e-01 3.367390000000000105e-01 3.166030000000000233e-01 -4.335309999999999997e-01 -3.360890000000000266e-01 5.209999999999999788e-04 4.730000000000000046e-04 1.026999999999999918e-03 3.162010000000000098e-01 -4.335720000000000129e-01 -3.367299999999999738e-01 1.737999999999999962e-03 6.229999999999999644e-04 1.054999999999999948e-03 3.164810000000000123e-01 -4.336400000000000254e-01 -3.363459999999999783e-01 1.263000000000000017e-03 4.070000000000000267e-04 1.329000000000000103e-03 -3.180629999999999846e-01 4.358449999999999824e-01 3.373729999999999785e-01 -3.181300000000000239e-01 4.354529999999999790e-01 3.376370000000000204e-01 -3.173659999999999815e-01 4.360319999999999752e-01 3.375500000000000167e-01 -3.181479999999999864e-01 4.359919999999999907e-01 3.368680000000000008e-01 -3.169319999999999915e-01 4.360069999999999779e-01 3.366379999999999928e-01 -3.176749999999999852e-01 4.358659999999999757e-01 3.370000000000000218e-01 3.169170000000000043e-01 -4.333009999999999917e-01 -3.385190000000000143e-01 3.280000000000000038e-04 3.970000000000000005e-04 -9.680000000000000019e-04 3.166880000000000250e-01 -4.333910000000000262e-01 -3.386750000000000038e-01 1.245000000000000013e-03 5.240000000000000517e-04 -1.193999999999999966e-03 3.159219999999999806e-01 -4.332110000000000127e-01 -3.388019999999999921e-01 5.820000000000000520e-04 7.060000000000000303e-04 -1.270999999999999994e-03 -3.182900000000000174e-01 4.351840000000000153e-01 3.359610000000000096e-01 -3.176599999999999979e-01 4.350740000000000163e-01 3.359739999999999949e-01 -3.178050000000000042e-01 4.351840000000000153e-01 3.354980000000000184e-01 -3.180180000000000229e-01 4.356760000000000077e-01 3.354369999999999852e-01 -3.172940000000000205e-01 4.357449999999999934e-01 3.349099999999999855e-01 -3.177719999999999989e-01 4.358230000000000159e-01 3.345969999999999778e-01 3.163850000000000273e-01 -4.340160000000000129e-01 -3.387089999999999823e-01 3.161430000000000073e-01 -4.343270000000000186e-01 -3.384050000000000114e-01 3.165189999999999948e-01 -4.341030000000000166e-01 -3.381299999999999861e-01 -3.174879999999999924e-01 4.351709999999999745e-01 3.379369999999999874e-01 7.299999999999999632e-04 -7.100000000000000462e-05 4.169999999999999987e-04 -3.180549999999999766e-01 4.350080000000000058e-01 3.382870000000000044e-01 1.445000000000000104e-03 1.200000000000000030e-04 1.520000000000000084e-04 -3.175330000000000097e-01 4.351419999999999733e-01 3.382830000000000004e-01 1.541999999999999968e-03 1.640000000000000019e-04 1.969999999999999909e-04 -3.178500000000000214e-01 4.357469999999999954e-01 3.386629999999999918e-01 -3.176069999999999727e-01 4.360189999999999899e-01 3.386239999999999806e-01 -3.171939999999999760e-01 4.363960000000000061e-01 3.385750000000000148e-01 7.690000000000000438e-04 -3.840000000000000097e-04 1.178000000000000011e-03 3.161430000000000073e-01 -4.340510000000000201e-01 -3.377260000000000262e-01 5.220000000000000031e-04 -1.665999999999999946e-03 1.949999999999999965e-04 1.093000000000000005e-03 -6.189999999999999756e-04 1.299999999999999940e-03 3.169569999999999887e-01 -4.342880000000000074e-01 -3.372709999999999875e-01 1.500999999999999947e-03 -1.838999999999999923e-03 3.899999999999999929e-04 1.364999999999999894e-03 -6.899999999999999667e-04 1.128000000000000096e-03 3.165930000000000133e-01 -4.344359999999999888e-01 -3.376489999999999769e-01 8.959999999999999866e-04 -1.779999999999999898e-03 5.689999999999999529e-04 3.163799999999999946e-01 -4.354330000000000145e-01 -3.378149999999999764e-01 3.162530000000000063e-01 -4.357210000000000250e-01 -3.381549999999999834e-01 3.159529999999999839e-01 -4.355780000000000207e-01 -3.384269999999999778e-01 -3.175740000000000229e-01 4.342170000000000196e-01 3.374969999999999914e-01 -3.168139999999999845e-01 4.341470000000000051e-01 3.371779999999999777e-01 -3.165930000000000133e-01 4.339189999999999992e-01 3.373200000000000087e-01 -7.799999999999999859e-05 -1.679999999999999907e-04 -9.810000000000001011e-04 3.157929999999999904e-01 -4.343420000000000059e-01 -3.397020000000000040e-01 -2.950000000000000148e-04 -7.979999999999999897e-04 -5.869999999999999567e-04 9.829999999999999329e-04 -5.469999999999999602e-04 -8.109999999999999805e-04 3.173119999999999830e-01 -4.344859999999999833e-01 -3.398129999999999762e-01 1.222999999999999912e-03 -4.640000000000000027e-04 -1.304999999999999953e-03 1.129999999999999928e-03 -3.469999999999999777e-04 -1.142999999999999919e-03 3.163989999999999858e-01 -4.343859999999999943e-01 -3.393709999999999782e-01 3.170000000000000075e-04 -5.419999999999999471e-04 -1.172999999999999998e-03 3.154159999999999742e-01 -4.352329999999999810e-01 -3.395599999999999730e-01 3.166519999999999890e-01 -4.353690000000000060e-01 -3.391799999999999815e-01 3.164839999999999876e-01 -4.353199999999999847e-01 -3.395299999999999985e-01 -3.177909999999999902e-01 4.347750000000000226e-01 3.362820000000000253e-01 -3.177769999999999762e-01 4.345740000000000158e-01 3.369260000000000033e-01 -3.168940000000000090e-01 4.346300000000000163e-01 3.363099999999999978e-01 3.161570000000000213e-01 -4.342150000000000176e-01 -3.391600000000000170e-01 3.172940000000000205e-01 -4.342940000000000134e-01 -3.391179999999999750e-01 3.166149999999999798e-01 -4.339749999999999996e-01 -3.390059999999999740e-01 3.162360000000000171e-01 -4.348230000000000151e-01 -3.379090000000000149e-01 3.170009999999999772e-01 -4.348449999999999815e-01 -3.384260000000000046e-01 3.160299999999999776e-01 -4.351380000000000248e-01 -3.377950000000000119e-01 1.052999999999999900e-03 -3.919999999999999873e-04 1.085000000000000027e-03 -3.170209999999999972e-01 4.351039999999999908e-01 3.391270000000000118e-01 1.036999999999999944e-03 -3.649999999999999816e-04 1.028000000000000051e-03 1.105000000000000079e-03 -1.169999999999999979e-04 1.036000000000000029e-03 -3.172570000000000112e-01 4.352440000000000198e-01 3.388840000000000185e-01 9.890000000000000787e-04 -4.310000000000000137e-04 1.337999999999999997e-03 1.724999999999999971e-03 -1.840000000000000001e-04 9.539999999999999869e-04 -3.165109999999999868e-01 4.350260000000000238e-01 3.388909999999999978e-01 1.092000000000000089e-03 -3.970000000000000005e-04 8.549999999999999658e-04