2.445716307748822208e-03 -2.935644791391139527e-03 -1.158768588951253342e-01 1.917071146527546399e-03 2.037974283116434932e-03 -1.707950830822601651e-03 4.508940694334735884e-04 -8.509637034444617965e-04 2.585030427977552583e-03 8.888882918120567279e-04 -1.296180638959075924e-05 2.743036382597679578e-03 1.708937192493163607e-04 1.036870153454528698e-06 2.610006946661525429e-03 -7.114388231536125477e-05 3.205015991831472173e-05 3.533996651845938957e-03 -2.109104721665148313e-03 8.450383433881072243e-04 2.587902137109064551e-03 4.168968226482836826e-04 4.280357134032689720e-04 2.542010910149112689e-03 -1.071513684766078189e-04 4.040528960275888365e-04 3.724989911589735719e-03 -5.115484101429719011e-05 -1.299460844317102998e-04 3.799999762813369847e-03 -7.610590458043592398e-05 1.690369784697965186e-04 2.603994506752614797e-03 2.508760306919109013e-04 3.304297485151908866e-05 3.045009750236808872e-03 1.168824873444595570e-04 -9.395920283924642953e-05 2.884006094368384791e-03 3.498760940043088899e-04 -4.195714519092557830e-05 3.042014844936118036e-03 1.278734027450901265e-04 5.704399271432540478e-05 3.110004401245374146e-03 -3.211241137198233230e-04 4.043465261629903248e-06 3.047986869062321597e-03 -6.312251004965308985e-05 2.320427670027989595e-04 3.012994142544375351e-03 -2.712608511895600268e-05 -2.249561410931581317e-04 3.092002087659482049e-03 3.861840455111661732e-06 8.048102126876289841e-06 3.393000046307169653e-03 -4.121670732342474892e-06 4.042366384126679354e-06 2.987999777627902039e-03 3.687662836125348237e-05 1.604292974747980073e-05 3.030001277010592898e-03 3.875134229737745302e-06 -1.995653400938476331e-05 3.066000443588525436e-03 1.987636367740255858e-05 -9.956971872192269018e-06 3.036000953372396290e-03 1.487764404978011447e-05 1.304259252881358813e-05 3.005000423708398521e-03 1.876572781546225082e-06 -2.957028667943957377e-06 3.031000121157379542e-03 2.787892986726156212e-05 -8.957871337370209224e-06 2.973001265020006230e-03 4.287796352468910147e-05 5.042457183364808417e-06 2.997001677321774193e-03 4.560982620181283816e-04 -2.560346389296276116e-04 -2.417977799536674254e-03 -3.988288986531992832e-05 2.039593126709975221e-04 -2.872004518427985487e-03 -4.649017176536382706e-04 -2.830339319652414964e-04 -2.419014920640009687e-03 -2.890047329170546695e-05 5.259655138999475357e-04 -2.434008636145623683e-03 2.112497067343056632e-05 -2.043528096687374288e-06 -3.068999113653662209e-03 -6.387443173923822420e-05 3.295633996532239420e-05 -3.083003071134713963e-03 -1.858828491732754048e-04 -1.080406722246780648e-04 -2.879006040203539642e-03 3.331164706791615534e-04 -9.204083757877481694e-05 -2.861985132941828602e-03 -2.887541849629065500e-05 -3.104336134379777291e-05 -3.060000738549443610e-03 -1.587231691376167486e-01 -2.796817548724796990e-03 4.096576315738491118e-03 6.131150779658938246e-03 3.579427982828149962e-04 -3.695755412665329646e-03 1.601797053958649688e-03 -3.003931414237044888e-03 4.926107820225742243e-03 6.677811691765819183e-04 2.447076334540546159e-03 5.420992503501988712e-03 1.812040667652945738e-03 3.259985310465859584e-03 -9.359724324565756254e-04 -1.361001367408501330e-03 6.440017177714324080e-04 4.593544839919586596e-05 8.251086447360330778e-04 -3.531039436063976734e-03 -2.735916341071645014e-03 -3.828673765579009686e-04 9.795415115374090894e-05 -3.255016982480954564e-03 6.870211973062436165e-04 2.315992713217568562e-03 -4.760048600329840974e-04 6.412226347298842879e-05 -2.704262602850781747e-05 -3.002997008274330745e-03 -3.887744355996840511e-05 -1.704264462547941693e-05 -3.010001344293123521e-03 -7.587893298672563150e-05 -4.704210525096422246e-05 -2.974002425665176180e-03 -2.687683740879931796e-05 8.095716165734746545e-05 -3.023002245051645102e-03 -6.687913738196376396e-05 -4.804204140885199952e-05 -2.969002045004400479e-03 2.141214575510865426e-04 -1.604245992313286953e-05 -2.982991056120653638e-03 4.123258061529432218e-06 -5.042919318045033793e-06 -3.026999763413884027e-03 -4.987831355140017516e-05 1.595767589564951082e-05 -2.988002260109131301e-03 -2.688051717229659917e-05 6.195843766084557205e-05 -2.933001975757802866e-03 1.620002973987304327e-04 -8.800025443666411825e-05 -8.992155570567607410e-06 -1.699999067136822954e-04 -8.899992359286273166e-05 -4.005660720022851527e-06 1.100551285084128979e-05 -2.400019934801138441e-04 -1.399961492772618088e-04 2.160058064958905949e-04 8.299783179531675255e-05 -1.409923809194532282e-04 -3.600017617425092234e-05 -1.699991509924313773e-05 3.998775067620350013e-06 -2.539925681985583301e-04 7.799763269219956742e-05 -1.810114487934767660e-04 4.599884266461715045e-05 2.380004318254306769e-04 3.299849882076942402e-05 3.599902658784875621e-05 5.000312078723047004e-06 2.400139503951250128e-05 -5.600115499998884491e-05 3.300045500052348717e-05 2.899725173918469778e-05 2.251520651468780221e-02 -7.331091537266630140e-03 -5.211979228007134271e-03 1.303009043981124670e-03 -9.290044228212245231e-04 -2.399337693656304030e-04 2.017049835892021845e-02 3.294159755314653333e-03 1.238277466722472603e-02 1.217367379630095690e-02 1.430104428779766868e-03 8.038475453967623696e-03 2.701048087920225951e-03 2.492981821433913527e-03 -1.132925357092222666e-03 3.756338456805354193e-04 -9.387283601676300426e-05 8.990016635392695035e-03 -4.629507305838305247e-04 -1.080168209498723764e-04 -1.212017321428939150e-03 3.979710259120699091e-04 1.428010165614344460e-03 7.389959603655400170e-04 -6.949914326255079555e-04 -5.000025748822457990e-04 -2.200212119052808249e-04 -2.400270322700488878e-05 -1.999904547158205877e-05 6.599930619348905062e-05 5.100390839974951846e-05 5.099861317149515465e-05 -9.499864621421804213e-05 3.200923192548342771e-05 1.409967991037472607e-04 -2.240006957891831020e-04 -1.309943248316720584e-04 -3.300188231552764418e-05 -1.400048664351580729e-04 2.001004551870033701e-05 3.599649659878832145e-05 -2.459996957537813030e-04 4.000020981463063861e-05 -4.400011638218271205e-05 -5.997747338785188280e-06 5.800586921288952886e-05 -4.500210118956819965e-05 -1.449970000564874560e-04 7.600264284871758528e-05 -5.700099523645557446e-05 -6.599609702144401636e-05 -3.099648703700011849e-05 -3.800120919148493277e-05 -8.700072351049779732e-05 -3.051178645483898846e-02 1.686965048935600009e-02 4.419451840105597523e-02 8.918564577019523281e-05 -1.634716982264809888e-03 1.996702682695857684e-02 2.944321297540716809e-02 1.838860414013574612e-02 4.423893828362292224e-02 -1.785763351444089866e-03 -3.338639376084107102e-02 4.266140066733288549e-02 -1.486871077136902621e-03 -1.796956017623376660e-04 2.138794202093041372e-02 1.065189584811480732e-03 2.232813884981170644e-04 1.990604022828145261e-02 8.582534972966688073e-04 -1.048741048699255302e-03 1.831204983466218003e-02 2.135190758459869480e-03 7.280082846758523727e-06 1.987308686201973151e-02 8.311314304108225783e-04 7.363019593372335369e-04 2.134402342507286596e-02 -1.224864138990046022e-03 1.523018679007605140e-04 2.122394798292838794e-02 6.771212495291452143e-04 -9.276948291542188750e-04 2.156204074565755413e-02 8.211613102876722317e-04 1.088291659874480490e-03 2.061701802796743477e-02 -1.858226866611939530e-04 -1.147713732941754456e-03 2.018100872395477835e-02 -2.488985837704559131e-04 9.393133106989814051e-04 2.208497656777884746e-02 -1.468583443040335623e-04 -3.870104610796363273e-05 2.107799458809443693e-02 2.721648702450469551e-04 1.742906011629985995e-04 2.051200863079358921e-02 3.521485026518055852e-04 -3.070381869347296012e-05 2.091001479453321113e-02 2.131244617250717518e-04 -2.066953874733862338e-04 2.149701162907559707e-02 4.114179259045547092e-05 -1.970123584654245700e-05 2.107500197423973001e-02 -4.686931864086601345e-05 -1.269729640545225286e-05 2.134799829130670443e-02 -9.785808356459089954e-05 -1.770116954366449330e-05 2.107199628568868707e-02 -2.285742347404736791e-05 -6.701455114210925325e-06 2.105599918381199573e-02 5.313301019980949712e-05 -2.698182840411665493e-06 2.129100222166717057e-02 -2.458656810003051430e-04 4.301597585281654184e-06 2.125898994691809152e-02 -5.386851670547314000e-05 7.530245386633288183e-05 2.132999675863429465e-02 -6.386996621735763658e-05 4.430295792225731469e-05 2.136499679090391596e-02 -1.286707983141979399e-05 -6.569811697851889230e-05 2.129200042728916428e-02 -4.728473451250266962e-05 -4.724900956479670291e-05 -1.756600127191664321e-02 5.238746079116695905e-04 -2.523049910593731467e-04 -2.148297511022790804e-02 -4.831381423610624270e-04 -2.592997649315897479e-04 -2.117001601717160425e-02 -1.091408619235480936e-04 6.357011330724322146e-04 -2.108601347674967513e-02 7.486053496957845426e-05 6.517005069544841000e-04 -2.112000621092567990e-02 2.385852847087532096e-05 1.177010998751406049e-04 -2.108100071679964993e-02 4.378587299147435638e-04 -4.042994368995748403e-04 -2.109597645756081455e-02 4.583605515045788986e-05 -8.429114789855185464e-05 -2.053299695754212326e-02 -4.231295723036043624e-04 -3.913028317684643818e-04 -2.138301170225775580e-02 3.213330220639708940e-02 -1.270548202322945713e-02 -3.222251139917169105e-02 3.330025993191542549e-02 1.475588744018871759e-02 -6.098853197064988893e-03 2.130891138422160228e-03 1.305688419657683548e-03 -2.185893176042611949e-02 -5.700977901281333721e-04 -1.561314101319756899e-03 -2.218600109949314669e-02 1.257891202449962957e-03 -5.883114353519593425e-04 -2.189694045700981209e-02 5.607656128461830508e-04 9.097332457223114479e-04 -1.878399008062655098e-02 8.956889921106252900e-03 -7.603170666437540377e-04 -2.186862450862777502e-02 3.013781245581589885e-03 -1.691274827868235976e-03 -1.921785331561253959e-02 4.032950986118133754e-03 9.286659898332492872e-04 -2.333584896297745057e-02 7.685540614306025898e-05 -7.329790662533914756e-05 -2.100799585070957723e-02 -1.140731506089407168e-06 7.470085007626750203e-05 -2.110000112515943507e-02 2.585794659887273537e-05 5.070128262724239796e-05 -2.106799968545988028e-02 -4.713619037315553724e-05 -5.430073016157604981e-05 -2.121400116928112700e-02 3.785999901101977393e-05 -8.429947817825617421e-05 -2.112099728276232991e-02 -1.446697247602410438e-07 -1.429780380719692211e-05 -2.100499982270594840e-02 -9.914132894164039719e-05 3.970112530255427355e-05 -2.108600461959413835e-02 6.185851820294014270e-05 7.010417774909059618e-07 -2.108299751060712171e-02 1.478615354166213302e-04 5.769993945501372543e-05 -2.115599481667858328e-02
2.444715092393039482e-03 -2.927644365275089335e-03 -1.158468590492961886e-01 1.912071113646588013e-03 2.047974301208202626e-03 -1.706951176205421302e-03 4.538935807809052741e-04 -8.509635356599059078e-04 2.597030550128950378e-03 8.988879284504966210e-04 -8.961686619797298511e-06 2.752036733086770347e-03 1.718933464923389463e-04 -6.963003028576866335e-06 2.619007100796117999e-03 -8.114420180519944434e-05 4.005028116983270098e-05 3.541996131207883480e-03 -2.112104768652088224e-03 8.370383599156975239e-04 2.588902128367689438e-03 4.088962455109973926e-04 4.190359181572805673e-04 2.556010711969160763e-03 -9.815186105201998421e-05 3.990530591146718869e-04 3.736990348955057922e-03 -5.015549098141979006e-05 -1.279458583701822744e-04 3.815999775163820325e-03 -6.810655533693781374e-05 1.700371990504522804e-04 2.619994818326786597e-03 2.448753032067815978e-04 4.004323474910688826e-05 3.063009406650625283e-03 1.128819579768569994e-04 -9.395901539592208548e-05 2.897005931472895583e-03 3.488753931315497305e-04 -5.295690338429931844e-05 3.059014960154861958e-03 1.338727817410582477e-04 4.404420068458946420e-05 3.125004829867462312e-03 -3.151247253209733812e-04 3.043673230684227557e-06 3.062987127551248297e-03 -7.212327590241383098e-05 2.420430434268681398e-04 3.031993634261418314e-03 -2.512697549408064387e-05 -2.179558307483581625e-04 3.114002069836388671e-03 -1.399105376912280154e-07 8.048714904061532259e-06 3.435999883383791809e-03 -2.123421730121764500e-06 4.042974463334986590e-06 3.030999859029630782e-03 3.887487893062116978e-05 1.804353782648648820e-05 3.073001330056795381e-03 1.873383235276056712e-06 -1.995592279819183149e-05 3.109000362106849932e-03 2.087486170693365607e-05 -3.956448077364853249e-06 3.073000908992271855e-03 1.887585232950201542e-05 1.304321321982494455e-05 3.049000586550900792e-03 2.874943163542882659e-06 -3.956462339024773187e-06 3.071000176018810583e-03 2.987725796044183460e-05 -1.195729161345019528e-05 3.014001388956885890e-03 3.987641691883036724e-05 6.042998288476267281e-06 3.035001540946132784e-03 4.610996073688487622e-04 -2.540351107120570381e-04 -2.450977624257269158e-03 -3.588178805523675296e-05 2.069589267382356641e-04 -2.899004398052772331e-03 -4.759004106597670633e-04 -2.780343770422394182e-04 -2.451015439428441949e-03 -3.089912480088537525e-05 5.319650475980880347e-04 -2.467008802623229732e-03 2.012622910243289017e-05 -7.043966824843420944e-06 -3.099999083456878111e-03 -6.287317801333561847e-05 2.195589967177890133e-05 -3.114002874429647443e-03 -1.868815069518725590e-04 -1.100411393087272861e-04 -2.912006052538186878e-03 3.341178974748795012e-04 -9.004133458481029773e-05 -2.896985120543968395e-03 -2.887387110437021948e-05 -3.104390010002157661e-05 -3.098000738514119275e-03 -1.586281688080109220e-01 -2.791817736532298949e-03 4.088580113337966261e-03 6.146151677072125667e-03 3.599424746261730844e-04 -3.717754830187638450e-03 1.603797093110683998e-03 -3.005931429980631276e-03 4.925107930023901390e-03 6.757811378519885861e-04 2.459076342453162759e-03 5.421992659134706495e-03 1.802041125776935194e-03 3.272985162338762181e-03 -9.469730239657863204e-04 -1.354000875629932880e-03 6.480015421565116793e-04 3.393567674525499505e-05 8.291094035407794256e-04 -3.550039708572158472e-03 -2.754915908793072188e-03 -3.818668558071186049e-04 8.695396606051395306e-05 -3.268016785792620532e-03 6.880218504060015092e-04 2.317992485589644939e-03 -4.920048476527863826e-04 7.512279988694655838e-05 -1.804281895371256128e-05 -3.015996687932754987e-03 -4.087695177393551612e-05 -1.304281319343470894e-05 -3.022001482434724402e-03 -8.287836445630663424e-05 -4.904229825892459992e-05 -2.988002682342593037e-03 -2.587615377465688499e-05 6.995691985293906367e-05 -3.040002048359592788e-03 -5.787890638513758240e-05 -6.504213352087579803e-05 -2.975001437489184324e-03 2.001220981261095117e-04 -3.004267580450114053e-05 -2.998991427709006997e-03 1.312400199921385569e-05 8.956818433261665209e-06 -3.044999595398179600e-03 -5.387805903658717774e-05 2.895759395955140760e-05 -2.994002607297883371e-03 -3.187990792269640683e-05 5.995822890909752591e-05 -2.948002150992587705e-03 1.629962284481938702e-04 -8.399883744052720664e-05 9.100782834626980941e-05 -1.650034000907619179e-04 -7.799870821855119476e-05 8.199438684888913243e-05 1.700203279368154883e-05 -2.120007788905122305e-04 -5.399630200947765714e-05 2.020016686532907692e-04 1.029992888903737483e-04 -3.899323466145722150e-05 -3.900513862922970151e-05 -9.998183059926039844e-06 1.259985535473117160e-04 -2.409971211076869047e-04 8.799921042532211414e-05 -6.901106130416192227e-05 3.999580268593415144e-05 2.040014856836920901e-04 1.069987364708303325e-04 2.199721215886873342e-05 -2.399905313341125699e-05 6.800123606183509299e-05 -4.800406499202854681e-05 9.001455362444504032e-06 9.999791770631535697e-05 2.235121122046903469e-02 -7.250093025132098648e-03 -5.325987054519584936e-03 1.286012933631509999e-03 -9.020057564035712828e-04 -3.349348443314011299e-04 2.003850543113511185e-02 3.277157391735466274e-03 1.220876953325610720e-02 1.210368325610609343e-02 1.394101180166807492e-03 7.805473114124127088e-03 2.678054127135818824e-03 2.456979726954944786e-03 -1.281925783133803414e-03 3.646425427108045017e-04 -1.158758614497951622e-04 8.776016499573064539e-03 -4.569464094783248494e-04 -1.020183284947626936e-04 -1.318017162071875989e-03 4.019741856792300046e-04 1.407009056616438832e-03 6.609964210544860483e-04 -6.959876808223830784e-04 -4.930038784571287580e-04 -3.120213517849531096e-04 -3.000178701561889358e-05 -4.599936686027737031e-05 4.299943051161326260e-05 7.600429834879792324e-05 2.899845182085547827e-05 -1.049973162728478612e-04 1.401087955479545640e-05 1.129962319108908684e-04 -2.650010317490125505e-04 -1.409948831615359536e-04 -1.800167599794317205e-05 -1.260054863231356494e-04 2.600940651745954437e-05 5.199671874392420830e-05 -2.299996782877636477e-04 4.499927009686942466e-05 -4.799979420746689450e-05 1.700251295514350087e-05 6.400473686012767591e-05 -3.500170891028307518e-05 -1.169968975350441732e-04 8.400294669372615106e-05 -3.300110074741183518e-05 -7.299611151445110587e-05 -4.399647213832166078e-05 -1.900119901445032199e-05 -8.700152225906818864e-05 -3.026377237268620610e-02 1.686064538965666507e-02 4.384852862774855919e-02 4.519598111427949004e-05 -1.540720520626886851e-03 1.971502370276562166e-02 2.925322562799239842e-02 1.837359987961217217e-02 4.392793075961676924e-02 -1.755750426457682251e-03 -3.326139825034910014e-02 4.234640011703081491e-02 -1.478862857068832413e-03 -2.906985002853709516e-04 2.118394392061860587e-02 1.038198521453637807e-03 1.432782763543029325e-04 1.968504026324499265e-02 8.682586555392883326e-04 -1.013742842934961183e-03 1.818604974576610092e-02 2.092196249540347313e-03 -7.217974859743143652e-07 1.973808522457073597e-02 8.401364210444891038e-04 7.133002084237572479e-04 2.122102411776342901e-02 -1.244858251715254488e-03 7.829981361002062734e-05 2.107794821780158492e-02 6.861277358638633592e-04 -9.646971046447125287e-04 2.140204163687119826e-02 8.261670730284884686e-04 1.011289628542525170e-03 2.047401932339240962e-02 -1.908192661064859986e-04 -1.147714919961584108e-03 2.009700852042860947e-02 -2.228936651647059168e-04 9.803115890015044569e-04 2.196497704534422502e-02 -1.748540865898180828e-04 -9.702498677712574122e-06 2.097399303685214267e-02 2.251698664351556626e-04 2.102889082691544297e-04 2.039000620662751243e-02 3.961544016770805559e-04 1.429410524762736273e-05 2.076601594838516432e-02 1.971312934615635285e-04 -1.666977426413058659e-04 2.133001041058668612e-02 7.147376858751051487e-06 -1.270315158334359299e-05 2.093800049061380134e-02 -3.386411030199418872e-05 -1.769912134170471775e-05 2.121999889168557640e-02 -7.185225267029880303e-05 -7.703217327309601619e-06 2.092899720278611209e-02 -2.684966927251088549e-05 1.529585423443683369e-05 2.086599870919441865e-02 3.113907529747885167e-05 4.629973606685024412e-05 2.114300063123561446e-02 -2.208590215840606098e-04 3.229926702691082691e-05 2.109599056811351653e-02 -2.886175787532105697e-05 2.230006660494634389e-05 2.116299852823228314e-02 -4.986283227121369581e-05 2.300451672561289625e-06 2.118899795662550906e-02 -2.986009385502823673e-05 -8.870054224606804881e-05 2.112000006128314858e-02 -1.429515983350795828e-05 3.754608284597114603e-06 -1.730900065143340175e-02 5.378602874851233029e-04 -2.353000114390652443e-04 -2.113097478148519281e-02 -5.151516021268016943e-04 -2.352950470278669822e-04 -2.083901766081286064e-02 -8.515174696989385561e-05 5.677048855809462870e-04 -2.082001153560860893e-02 6.984915267789681612e-05 5.727044523045401190e-04 -2.084200529474504807e-02 3.847210394697981827e-06 1.670502861676593948e-05 -2.080500009951913309e-02 4.728483484472134624e-04 -3.492958347943719301e-04 -2.083997581234599272e-02 2.182417881438424189e-05 -1.428697501965949126e-05 -2.023999892755836902e-02 -4.491391455723286975e-04 -3.442994654555967047e-04 -2.114701342757415239e-02 3.194129022836078580e-02 -1.271347770462155288e-02 -3.192851910442629643e-02 3.306425518023511229e-02 1.461588924125859640e-02 -5.984860822404940855e-03 2.134882259683592610e-03 1.251691493112736496e-03 -2.164193083214521057e-02 -6.001065082558999222e-04 -1.514311029608606972e-03 -2.197100298767342558e-02 1.300881636959744757e-03 -5.313081230668344765e-04 -2.166093951436511705e-02 5.497562627585550260e-04 9.817365293987396699e-04 -1.855299154956962376e-02 8.846878726100773985e-03 -7.563130816208552508e-04 -2.159362904488809284e-02 3.013772223577297800e-03 -1.668271680399984001e-03 -1.899585364190747167e-02 4.043939166095377770e-03 9.146700927823583167e-04 -2.304584831682898391e-02 3.885091123568777926e-05 -4.129630313942587305e-05 -2.089699785189353537e-02 4.855137686884156728e-06 1.037022915104940791e-04 -2.099800129208428956e-02 5.485416737243394654e-05 6.070257845431453433e-05 -2.097499864641928433e-02 -3.114319828877533581e-05 -5.929830410820801045e-05 -2.104200044701858355e-02 3.485359254585823228e-05 -4.929723574112872481e-05 -2.096299790129348140e-02 4.849569068295292773e-06 1.270420552204196516e-05 -2.086300000203330715e-02 -1.041464143660352334e-04 -6.297112731202578880e-06 -2.096200417113654527e-02 8.285371701928751864e-05 -4.629731585863273389e-05 -2.096599598922312818e-02 1.408562213403149674e-04 3.170178805200513528e-05 -2.102599473322353668e-02