1.008447132000000046e+01 0.000000000000000000e+00 0.000000000000000000e+00 0.000000000000000000e+00 1.746681745000000063e+01 0.000000000000000000e+00 0.000000000000000000e+00 0.000000000000000000e+00 1.759426359000000062e+01
1.008447132000000046e+01 0.000000000000000000e+00 0.000000000000000000e+00 0.000000000000000000e+00 1.746681745000000063e+01 0.000000000000000000e+00 0.000000000000000000e+00 0.000000000000000000e+00 1.759426359000000062e+01
1.008447132000000046e+01 0.000000000000000000e+00 0.000000000000000000e+00 0.000000000000000000e+00 1.746681745000000063e+01 0.000000000000000000e+00 0.000000000000000000e+00 0.000000000000000000e+00 1.759426359000000062e+01
1.008447132000000046e+01 0.000000000000000000e+00 0.000000000000000000e+00 0.000000000000000000e+00 1.746681745000000063e+01 0.000000000000000000e+00 0.000000000000000000e+00 0.000000000000000000e+00 1.759426359000000062e+01
1.008447132000000046e+01 0.000000000000000000e+00 0.000000000000000000e+00 0.000000000000000000e+00 1.746681745000000063e+01 0.000000000000000000e+00 0.000000000000000000e+00 0.000000000000000000e+00 1.759426359000000062e+01
