1.299999999999999886e-04 4.400000000000000157e-04 4.155770000000000408e+00 1.680879999999999930e+00 2.911570000000000213e+00 4.155780000000000030e+00 1.399999999999999877e-04 3.880970000000000031e+00 1.685999999999999943e+00 1.680889999999999995e+00 9.698400000000000354e-01 1.685999999999999943e+00 3.361619999999999830e+00 4.400000000000000157e-04 4.155770000000000408e+00 5.042370000000000019e+00 2.911570000000000213e+00 4.155780000000000030e+00 3.361629999999999896e+00 3.880970000000000031e+00 1.685999999999999943e+00 5.042379999999999640e+00 9.698400000000000354e-01 1.685999999999999943e+00 6.723110000000000142e+00 4.400000000000000157e-04 4.155770000000000408e+00 8.403859999999999886e+00 2.911570000000000213e+00 4.155780000000000030e+00 6.723119999999999763e+00 3.880970000000000031e+00 1.685999999999999943e+00 8.403869999999999507e+00 9.698400000000000354e-01 1.685999999999999943e+00 1.299999999999999886e-04 5.822709999999999830e+00 4.155770000000000408e+00 1.680879999999999930e+00 8.733850000000000335e+00 4.155780000000000030e+00 1.399999999999999877e-04 9.703239999999999199e+00 1.685999999999999943e+00 1.680889999999999995e+00 6.792110000000000092e+00 1.685999999999999943e+00 3.361619999999999830e+00 5.822709999999999830e+00 4.155770000000000408e+00 5.042370000000000019e+00 8.733850000000000335e+00 4.155780000000000030e+00 3.361629999999999896e+00 9.703239999999999199e+00 1.685999999999999943e+00 5.042379999999999640e+00 6.792110000000000092e+00 1.685999999999999943e+00 6.723110000000000142e+00 5.822709999999999830e+00 4.155770000000000408e+00 8.403859999999999886e+00 8.733850000000000335e+00 4.155780000000000030e+00 6.723119999999999763e+00 9.703239999999999199e+00 1.685999999999999943e+00 8.403869999999999507e+00 6.792110000000000092e+00 1.685999999999999943e+00 1.299999999999999886e-04 1.164498000000000033e+01 4.155770000000000408e+00 1.680879999999999930e+00 1.455611999999999995e+01 4.155780000000000030e+00 1.399999999999999877e-04 1.552552000000000021e+01 1.685999999999999943e+00 1.680889999999999995e+00 1.261438000000000059e+01 1.685999999999999943e+00 3.361619999999999830e+00 1.164498000000000033e+01 4.155770000000000408e+00 5.042370000000000019e+00 1.455611999999999995e+01 4.155780000000000030e+00 3.361629999999999896e+00 1.552552000000000021e+01 1.685999999999999943e+00 5.042379999999999640e+00 1.261438000000000059e+01 1.685999999999999943e+00 6.723110000000000142e+00 1.164498000000000033e+01 4.155770000000000408e+00 8.403859999999999886e+00 1.455611999999999995e+01 4.155780000000000030e+00 6.723119999999999763e+00 1.552552000000000021e+01 1.685999999999999943e+00 8.403869999999999507e+00 1.261438000000000059e+01 1.685999999999999943e+00 1.299999999999999886e-04 4.400000000000000157e-04 1.002051999999999943e+01 1.680879999999999930e+00 2.911570000000000213e+00 1.002053000000000083e+01 1.399999999999999877e-04 3.880970000000000031e+00 7.550749999999999851e+00 1.680889999999999995e+00 9.698400000000000354e-01 7.550760000000000360e+00 3.361619999999999830e+00 4.400000000000000157e-04 1.002051999999999943e+01 5.042370000000000019e+00 2.911570000000000213e+00 1.002053000000000083e+01 3.361629999999999896e+00 3.880970000000000031e+00 7.550749999999999851e+00 5.042379999999999640e+00 9.698400000000000354e-01 7.550760000000000360e+00 6.723110000000000142e+00 4.400000000000000157e-04 1.002051999999999943e+01 8.403859999999999886e+00 2.911570000000000213e+00 1.002053000000000083e+01 6.723119999999999763e+00 3.880970000000000031e+00 7.550749999999999851e+00 8.403869999999999507e+00 9.698400000000000354e-01 7.550760000000000360e+00 1.299999999999999886e-04 5.822709999999999830e+00 1.002051999999999943e+01 1.680879999999999930e+00 8.733850000000000335e+00 1.002053000000000083e+01 1.399999999999999877e-04 9.703239999999999199e+00 7.550749999999999851e+00 1.680889999999999995e+00 6.792110000000000092e+00 7.550760000000000360e+00 3.361619999999999830e+00 5.822709999999999830e+00 1.002051999999999943e+01 5.042370000000000019e+00 8.733850000000000335e+00 1.002053000000000083e+01 3.361629999999999896e+00 9.703239999999999199e+00 7.550749999999999851e+00 5.042379999999999640e+00 6.792110000000000092e+00 7.550760000000000360e+00 6.723110000000000142e+00 5.822709999999999830e+00 1.002051999999999943e+01 8.403859999999999886e+00 8.733850000000000335e+00 1.002053000000000083e+01 6.723119999999999763e+00 9.703239999999999199e+00 7.550749999999999851e+00 8.403869999999999507e+00 6.792110000000000092e+00 7.550760000000000360e+00 1.299999999999999886e-04 1.164498000000000033e+01 1.002051999999999943e+01 1.680879999999999930e+00 1.455611999999999995e+01 1.002053000000000083e+01 1.399999999999999877e-04 1.552552000000000021e+01 7.550749999999999851e+00 1.680889999999999995e+00 1.261438000000000059e+01 7.550760000000000360e+00 3.361619999999999830e+00 1.164498000000000033e+01 1.002051999999999943e+01 5.042370000000000019e+00 1.455611999999999995e+01 1.002053000000000083e+01 3.361629999999999896e+00 1.552552000000000021e+01 7.550749999999999851e+00 5.042379999999999640e+00 1.261438000000000059e+01 7.550760000000000360e+00 6.723110000000000142e+00 1.164498000000000033e+01 1.002051999999999943e+01 8.403859999999999886e+00 1.455611999999999995e+01 1.002053000000000083e+01 6.723119999999999763e+00 1.552552000000000021e+01 7.550749999999999851e+00 8.403869999999999507e+00 1.261438000000000059e+01 7.550760000000000360e+00 1.299999999999999886e-04 4.400000000000000157e-04 1.588527999999999984e+01 1.680879999999999930e+00 2.911570000000000213e+00 1.588527999999999984e+01 1.399999999999999877e-04 3.880970000000000031e+00 1.341550999999999938e+01 1.680889999999999995e+00 9.698400000000000354e-01 1.341550999999999938e+01 3.361619999999999830e+00 4.400000000000000157e-04 1.588527999999999984e+01 5.042370000000000019e+00 2.911570000000000213e+00 1.588527999999999984e+01 3.361629999999999896e+00 3.880970000000000031e+00 1.341550999999999938e+01 5.042379999999999640e+00 9.698400000000000354e-01 1.341550999999999938e+01 6.723110000000000142e+00 4.400000000000000157e-04 1.588527999999999984e+01 8.403859999999999886e+00 2.911570000000000213e+00 1.588527999999999984e+01 6.723119999999999763e+00 3.880970000000000031e+00 1.341550999999999938e+01 8.403869999999999507e+00 9.698400000000000354e-01 1.341550999999999938e+01 1.299999999999999886e-04 5.822709999999999830e+00 1.588527999999999984e+01 1.680879999999999930e+00 8.733850000000000335e+00 1.588527999999999984e+01 1.399999999999999877e-04 9.703239999999999199e+00 1.341550999999999938e+01 1.680889999999999995e+00 6.792110000000000092e+00 1.341550999999999938e+01 3.361619999999999830e+00 5.822709999999999830e+00 1.588527999999999984e+01 5.042370000000000019e+00 8.733850000000000335e+00 1.588527999999999984e+01 3.361629999999999896e+00 9.703239999999999199e+00 1.341550999999999938e+01 5.042379999999999640e+00 6.792110000000000092e+00 1.341550999999999938e+01 6.723110000000000142e+00 5.822709999999999830e+00 1.588527999999999984e+01 8.403859999999999886e+00 8.733850000000000335e+00 1.588527999999999984e+01 6.723119999999999763e+00 9.703239999999999199e+00 1.341550999999999938e+01 8.403869999999999507e+00 6.792110000000000092e+00 1.341550999999999938e+01 1.299999999999999886e-04 1.164498000000000033e+01 1.588527999999999984e+01 1.680879999999999930e+00 1.455611999999999995e+01 1.588527999999999984e+01 1.399999999999999877e-04 1.552552000000000021e+01 1.341550999999999938e+01 1.680889999999999995e+00 1.261438000000000059e+01 1.341550999999999938e+01 3.361619999999999830e+00 1.164498000000000033e+01 1.588527999999999984e+01 5.042370000000000019e+00 1.455611999999999995e+01 1.588527999999999984e+01 3.361629999999999896e+00 1.552552000000000021e+01 1.341550999999999938e+01 5.042379999999999640e+00 1.261438000000000059e+01 1.341550999999999938e+01 6.723110000000000142e+00 1.164498000000000033e+01 1.588527999999999984e+01 8.403859999999999886e+00 1.455611999999999995e+01 1.588527999999999984e+01 6.723119999999999763e+00 1.552552000000000021e+01 1.341550999999999938e+01 8.403869999999999507e+00 1.261438000000000059e+01 1.341550999999999938e+01 1.399999999999999877e-04 1.940709999999999935e+00 2.920920000000000183e+00 1.299999999999999886e-04 3.881829999999999892e+00 4.961179999999999701e+00 1.680889999999999995e+00 2.910730000000000040e+00 8.806500000000000439e-01 1.499999999999999869e-04 5.821880000000000166e+00 8.806599999999999984e-01 1.680889999999999995e+00 4.851849999999999774e+00 2.920910000000000117e+00 1.680879999999999930e+00 9.706799999999999873e-01 4.961179999999999701e+00 3.361629999999999896e+00 1.940709999999999935e+00 2.920920000000000183e+00 3.361619999999999830e+00 3.881829999999999892e+00 4.961179999999999701e+00 5.042379999999999640e+00 2.910730000000000040e+00 8.806500000000000439e-01 3.361639999999999961e+00 5.821880000000000166e+00 8.806599999999999984e-01 5.042379999999999640e+00 4.851849999999999774e+00 2.920910000000000117e+00 5.042370000000000019e+00 9.706799999999999873e-01 4.961179999999999701e+00 6.723119999999999763e+00 1.940709999999999935e+00 2.920920000000000183e+00 6.723110000000000142e+00 3.881829999999999892e+00 4.961179999999999701e+00 8.403869999999999507e+00 2.910730000000000040e+00 8.806500000000000439e-01 6.723130000000000273e+00 5.821880000000000166e+00 8.806599999999999984e-01 8.403869999999999507e+00 4.851849999999999774e+00 2.920910000000000117e+00 8.403859999999999886e+00 9.706799999999999873e-01 4.961179999999999701e+00 1.399999999999999877e-04 7.762990000000000279e+00 2.920920000000000183e+00 1.299999999999999886e-04 9.704100000000000392e+00 4.961179999999999701e+00 1.680889999999999995e+00 8.733010000000000161e+00 8.806500000000000439e-01 1.499999999999999869e-04 1.164414999999999978e+01 8.806599999999999984e-01 1.680889999999999995e+00 1.067412000000000027e+01 2.920910000000000117e+00 1.680879999999999930e+00 6.792950000000000266e+00 4.961179999999999701e+00 3.361629999999999896e+00 7.762990000000000279e+00 2.920920000000000183e+00 3.361619999999999830e+00 9.704100000000000392e+00 4.961179999999999701e+00 5.042379999999999640e+00 8.733010000000000161e+00 8.806500000000000439e-01 3.361639999999999961e+00 1.164414999999999978e+01 8.806599999999999984e-01 5.042379999999999640e+00 1.067412000000000027e+01 2.920910000000000117e+00 5.042370000000000019e+00 6.792950000000000266e+00 4.961179999999999701e+00 6.723119999999999763e+00 7.762990000000000279e+00 2.920920000000000183e+00 6.723110000000000142e+00 9.704100000000000392e+00 4.961179999999999701e+00 8.403869999999999507e+00 8.733010000000000161e+00 8.806500000000000439e-01 6.723130000000000273e+00 1.164414999999999978e+01 8.806599999999999984e-01 8.403869999999999507e+00 1.067412000000000027e+01 2.920910000000000117e+00 8.403859999999999886e+00 6.792950000000000266e+00 4.961179999999999701e+00 1.399999999999999877e-04 1.358525999999999989e+01 2.920920000000000183e+00 1.299999999999999886e-04 1.552637000000000000e+01 4.961179999999999701e+00 1.680889999999999995e+00 1.455527999999999977e+01 8.806500000000000439e-01 1.499999999999999869e-04 1.746641999999999939e+01 8.806599999999999984e-01 1.680889999999999995e+00 1.649639000000000166e+01 2.920910000000000117e+00 1.680879999999999930e+00 1.261523000000000039e+01 4.961179999999999701e+00 3.361629999999999896e+00 1.358525999999999989e+01 2.920920000000000183e+00 3.361619999999999830e+00 1.552637000000000000e+01 4.961179999999999701e+00 5.042379999999999640e+00 1.455527999999999977e+01 8.806500000000000439e-01 3.361639999999999961e+00 1.746641999999999939e+01 8.806599999999999984e-01 5.042379999999999640e+00 1.649639000000000166e+01 2.920910000000000117e+00 5.042370000000000019e+00 1.261523000000000039e+01 4.961179999999999701e+00 6.723119999999999763e+00 1.358525999999999989e+01 2.920920000000000183e+00 6.723110000000000142e+00 1.552637000000000000e+01 4.961179999999999701e+00 8.403869999999999507e+00 1.455527999999999977e+01 8.806500000000000439e-01 6.723130000000000273e+00 1.746641999999999939e+01 8.806599999999999984e-01 8.403869999999999507e+00 1.649639000000000166e+01 2.920910000000000117e+00 8.403859999999999886e+00 1.261523000000000039e+01 4.961179999999999701e+00 1.399999999999999877e-04 1.940709999999999935e+00 8.785679999999999268e+00 1.299999999999999886e-04 3.881829999999999892e+00 1.082592999999999961e+01 1.680889999999999995e+00 2.910730000000000040e+00 6.745409999999999684e+00 1.499999999999999869e-04 5.821880000000000166e+00 6.745409999999999684e+00 1.680889999999999995e+00 4.851849999999999774e+00 8.785669999999999646e+00 1.680879999999999930e+00 9.706799999999999873e-01 1.082593999999999923e+01 3.361629999999999896e+00 1.940709999999999935e+00 8.785679999999999268e+00 3.361619999999999830e+00 3.881829999999999892e+00 1.082592999999999961e+01 5.042379999999999640e+00 2.910730000000000040e+00 6.745409999999999684e+00 3.361639999999999961e+00 5.821880000000000166e+00 6.745409999999999684e+00 5.042379999999999640e+00 4.851849999999999774e+00 8.785669999999999646e+00 5.042370000000000019e+00 9.706799999999999873e-01 1.082593999999999923e+01 6.723119999999999763e+00 1.940709999999999935e+00 8.785679999999999268e+00 6.723110000000000142e+00 3.881829999999999892e+00 1.082592999999999961e+01 8.403869999999999507e+00 2.910730000000000040e+00 6.745409999999999684e+00 6.723130000000000273e+00 5.821880000000000166e+00 6.745409999999999684e+00 8.403869999999999507e+00 4.851849999999999774e+00 8.785669999999999646e+00 8.403859999999999886e+00 9.706799999999999873e-01 1.082593999999999923e+01 1.399999999999999877e-04 7.762990000000000279e+00 8.785679999999999268e+00 1.299999999999999886e-04 9.704100000000000392e+00 1.082592999999999961e+01 1.680889999999999995e+00 8.733010000000000161e+00 6.745409999999999684e+00 1.499999999999999869e-04 1.164414999999999978e+01 6.745409999999999684e+00 1.680889999999999995e+00 1.067412000000000027e+01 8.785669999999999646e+00 1.680879999999999930e+00 6.792950000000000266e+00 1.082593999999999923e+01 3.361629999999999896e+00 7.762990000000000279e+00 8.785679999999999268e+00 3.361619999999999830e+00 9.704100000000000392e+00 1.082592999999999961e+01 5.042379999999999640e+00 8.733010000000000161e+00 6.745409999999999684e+00 3.361639999999999961e+00 1.164414999999999978e+01 6.745409999999999684e+00 5.042379999999999640e+00 1.067412000000000027e+01 8.785669999999999646e+00 5.042370000000000019e+00 6.792950000000000266e+00 1.082593999999999923e+01 6.723119999999999763e+00 7.762990000000000279e+00 8.785679999999999268e+00 6.723110000000000142e+00 9.704100000000000392e+00 1.082592999999999961e+01 8.403869999999999507e+00 8.733010000000000161e+00 6.745409999999999684e+00 6.723130000000000273e+00 1.164414999999999978e+01 6.745409999999999684e+00 8.403869999999999507e+00 1.067412000000000027e+01 8.785669999999999646e+00 8.403859999999999886e+00 6.792950000000000266e+00 1.082593999999999923e+01 1.399999999999999877e-04 1.358525999999999989e+01 8.785679999999999268e+00 1.299999999999999886e-04 1.552637000000000000e+01 1.082592999999999961e+01 1.680889999999999995e+00 1.455527999999999977e+01 6.745409999999999684e+00 1.499999999999999869e-04 1.746641999999999939e+01 6.745409999999999684e+00 1.680889999999999995e+00 1.649639000000000166e+01 8.785669999999999646e+00 1.680879999999999930e+00 1.261523000000000039e+01 1.082593999999999923e+01 3.361629999999999896e+00 1.358525999999999989e+01 8.785679999999999268e+00 3.361619999999999830e+00 1.552637000000000000e+01 1.082592999999999961e+01 5.042379999999999640e+00 1.455527999999999977e+01 6.745409999999999684e+00 3.361639999999999961e+00 1.746641999999999939e+01 6.745409999999999684e+00 5.042379999999999640e+00 1.649639000000000166e+01 8.785669999999999646e+00 5.042370000000000019e+00 1.261523000000000039e+01 1.082593999999999923e+01 6.723119999999999763e+00 1.358525999999999989e+01 8.785679999999999268e+00 6.723110000000000142e+00 1.552637000000000000e+01 1.082592999999999961e+01 8.403869999999999507e+00 1.455527999999999977e+01 6.745409999999999684e+00 6.723130000000000273e+00 1.746641999999999939e+01 6.745409999999999684e+00 8.403869999999999507e+00 1.649639000000000166e+01 8.785669999999999646e+00 8.403859999999999886e+00 1.261523000000000039e+01 1.082593999999999923e+01 1.399999999999999877e-04 1.940709999999999935e+00 1.465043000000000006e+01 1.299999999999999886e-04 3.881829999999999892e+00 1.669069000000000003e+01 1.680889999999999995e+00 2.910730000000000040e+00 1.261016000000000048e+01 1.499999999999999869e-04 5.821880000000000166e+00 1.261016000000000048e+01 1.680889999999999995e+00 4.851849999999999774e+00 1.465042000000000044e+01 1.680879999999999930e+00 9.706799999999999873e-01 1.669069000000000003e+01 3.361629999999999896e+00 1.940709999999999935e+00 1.465043000000000006e+01 3.361619999999999830e+00 3.881829999999999892e+00 1.669069000000000003e+01 5.042379999999999640e+00 2.910730000000000040e+00 1.261016000000000048e+01 3.361639999999999961e+00 5.821880000000000166e+00 1.261016000000000048e+01 5.042379999999999640e+00 4.851849999999999774e+00 1.465042000000000044e+01 5.042370000000000019e+00 9.706799999999999873e-01 1.669069000000000003e+01 6.723119999999999763e+00 1.940709999999999935e+00 1.465043000000000006e+01 6.723110000000000142e+00 3.881829999999999892e+00 1.669069000000000003e+01 8.403869999999999507e+00 2.910730000000000040e+00 1.261016000000000048e+01 6.723130000000000273e+00 5.821880000000000166e+00 1.261016000000000048e+01 8.403869999999999507e+00 4.851849999999999774e+00 1.465042000000000044e+01 8.403859999999999886e+00 9.706799999999999873e-01 1.669069000000000003e+01 1.399999999999999877e-04 7.762990000000000279e+00 1.465043000000000006e+01 1.299999999999999886e-04 9.704100000000000392e+00 1.669069000000000003e+01 1.680889999999999995e+00 8.733010000000000161e+00 1.261016000000000048e+01 1.499999999999999869e-04 1.164414999999999978e+01 1.261016000000000048e+01 1.680889999999999995e+00 1.067412000000000027e+01 1.465042000000000044e+01 1.680879999999999930e+00 6.792950000000000266e+00 1.669069000000000003e+01 3.361629999999999896e+00 7.762990000000000279e+00 1.465043000000000006e+01 3.361619999999999830e+00 9.704100000000000392e+00 1.669069000000000003e+01 5.042379999999999640e+00 8.733010000000000161e+00 1.261016000000000048e+01 3.361639999999999961e+00 1.164414999999999978e+01 1.261016000000000048e+01 5.042379999999999640e+00 1.067412000000000027e+01 1.465042000000000044e+01 5.042370000000000019e+00 6.792950000000000266e+00 1.669069000000000003e+01 6.723119999999999763e+00 7.762990000000000279e+00 1.465043000000000006e+01 6.723110000000000142e+00 9.704100000000000392e+00 1.669069000000000003e+01 8.403869999999999507e+00 8.733010000000000161e+00 1.261016000000000048e+01 6.723130000000000273e+00 1.164414999999999978e+01 1.261016000000000048e+01 8.403869999999999507e+00 1.067412000000000027e+01 1.465042000000000044e+01 8.403859999999999886e+00 6.792950000000000266e+00 1.669069000000000003e+01 1.399999999999999877e-04 1.358525999999999989e+01 1.465043000000000006e+01 1.299999999999999886e-04 1.552637000000000000e+01 1.669069000000000003e+01 1.680889999999999995e+00 1.455527999999999977e+01 1.261016000000000048e+01 1.499999999999999869e-04 1.746641999999999939e+01 1.261016000000000048e+01 1.680889999999999995e+00 1.649639000000000166e+01 1.465042000000000044e+01 1.680879999999999930e+00 1.261523000000000039e+01 1.669069000000000003e+01 3.361629999999999896e+00 1.358525999999999989e+01 1.465043000000000006e+01 3.361619999999999830e+00 1.552637000000000000e+01 1.669069000000000003e+01 5.042379999999999640e+00 1.455527999999999977e+01 1.261016000000000048e+01 3.361639999999999961e+00 1.746641999999999939e+01 1.261016000000000048e+01 5.042379999999999640e+00 1.649639000000000166e+01 1.465042000000000044e+01 5.042370000000000019e+00 1.261523000000000039e+01 1.669069000000000003e+01 6.723119999999999763e+00 1.358525999999999989e+01 1.465043000000000006e+01 6.723110000000000142e+00 1.552637000000000000e+01 1.669069000000000003e+01 8.403869999999999507e+00 1.455527999999999977e+01 1.261016000000000048e+01 6.723130000000000273e+00 1.746641999999999939e+01 1.261016000000000048e+01 8.403869999999999507e+00 1.649639000000000166e+01 1.465042000000000044e+01 8.403859999999999886e+00 1.261523000000000039e+01 1.669069000000000003e+01