-2.767648400269999911e+03
-2.767615230119999978e+03
-2.767515991799999938e+03
-2.767351234870000098e+03
-2.767121881210000083e+03
