5.300000000000000078e-05 3.499999999999999693e-05 5.015999999999999626e-03 4.800000000000000122e-05 -2.199999999999999943e-05 5.053000000000000200e-03 1.399999999999999979e-05 -8.819999999999999715e-04 -5.369999999999999774e-03 -4.600000000000000004e-05 -7.079999999999999705e-04 -5.307000000000000085e-03 6.799999999999999946e-05 -1.800000000000000046e-05 5.067000000000000323e-03 1.900000000000000105e-04 4.500000000000000283e-05 5.081999999999999712e-03 -5.899999999999999754e-05 -9.070000000000000371e-04 -5.329999999999999669e-03 7.299999999999999903e-05 -8.050000000000000515e-04 -5.256000000000000255e-03 2.439999999999999949e-04 7.999999999999999638e-06 5.041000000000000342e-03 1.039999999999999936e-04 -2.500000000000000120e-05 5.151000000000000197e-03 7.399999999999999623e-05 -7.730000000000000326e-04 -5.256000000000000255e-03 2.300000000000000002e-05 -8.140000000000000534e-04 -5.243000000000000264e-03 9.799999999999999684e-05 -8.600000000000000331e-05 5.184000000000000240e-03 3.000000000000000076e-05 1.479999999999999925e-04 5.246999999999999928e-03 -7.399999999999999623e-05 -7.950000000000000252e-04 -5.310999999999999749e-03 -8.500000000000000611e-05 -8.859999999999999603e-04 -5.374000000000000304e-03 1.090000000000000067e-04 -5.700000000000000314e-05 5.101999999999999764e-03 2.099999999999999884e-05 1.079999999999999960e-04 5.153999999999999727e-03 2.799999999999999958e-05 -7.380000000000000492e-04 -5.307000000000000085e-03 9.000000000000000567e-05 -8.549999999999999658e-04 -5.439000000000000258e-03 1.240000000000000054e-04 -1.749999999999999982e-04 5.141999999999999869e-03 2.759999999999999867e-04 1.330000000000000073e-04 5.139999999999999604e-03 6.299999999999999990e-05 -7.669999999999999951e-04 -5.424000000000000002e-03 5.300000000000000078e-05 -8.490000000000000368e-04 -5.536000000000000122e-03 6.899999999999999667e-05 -5.199999999999999680e-05 5.177000000000000178e-03 8.299999999999999815e-05 -5.500000000000000196e-05 5.099000000000000234e-03 -4.899999999999999842e-05 -7.529999999999999801e-04 -5.266999999999999980e-03 -4.800000000000000122e-05 -8.030000000000000028e-04 -5.231999999999999672e-03 9.299999999999999727e-05 -9.299999999999999727e-05 5.193999999999999832e-03 1.620000000000000075e-04 -8.399999999999999535e-05 5.081999999999999712e-03 -4.899999999999999842e-05 -7.389999999999999651e-04 -5.220999999999999946e-03 9.699999999999999963e-05 -8.229999999999999469e-04 -5.297999999999999758e-03 1.949999999999999965e-04 8.799999999999999771e-05 5.107000000000000428e-03 1.140000000000000063e-04 -1.250000000000000026e-04 5.048000000000000403e-03 1.150000000000000035e-04 -7.550000000000000287e-04 -5.263999999999999582e-03 -3.999999999999999819e-06 -7.560000000000000530e-04 -5.266999999999999980e-03 1.599999999999999928e-05 -3.499999999999999693e-05 5.263999999999999582e-03 -2.000000000000000164e-05 -4.800000000000000122e-05 5.215000000000000017e-03 -1.090000000000000067e-04 -8.310000000000000329e-04 -5.428999999999999798e-03 -3.300000000000000253e-05 -9.309999999999999699e-04 -5.394000000000000357e-03 1.630000000000000047e-04 -7.600000000000000418e-05 5.224000000000000345e-03 1.559999999999999972e-04 -1.600000000000000131e-04 5.211000000000000354e-03 6.000000000000000152e-05 -9.089999999999999773e-04 -5.355999999999999650e-03 3.199999999999999855e-05 -8.369999999999999619e-04 -5.394999999999999622e-03 1.730000000000000038e-04 -1.699999999999999987e-05 5.309000000000000351e-03 2.100000000000000087e-04 -2.000000000000000096e-04 5.233999999999999937e-03 5.399999999999999798e-05 -9.280000000000000054e-04 -5.438000000000000125e-03 4.199999999999999768e-05 -7.979999999999999897e-04 -5.374000000000000304e-03 1.039999999999999936e-04 -8.899999999999999491e-05 5.193999999999999832e-03 1.090000000000000067e-04 1.679999999999999907e-04 5.152000000000000329e-03 1.050000000000000044e-04 -8.130000000000000291e-04 -5.315000000000000280e-03 -1.430000000000000064e-04 -6.830000000000000134e-04 -5.422999999999999869e-03 1.479999999999999925e-04 -3.399999999999999973e-05 5.272999999999999909e-03 1.579999999999999916e-04 1.230000000000000082e-04 5.219999999999999814e-03 -1.090000000000000067e-04 -7.870000000000000476e-04 -5.317999999999999811e-03 8.200000000000000095e-05 -7.669999999999999951e-04 -5.285999999999999900e-03 1.129999999999999955e-04 3.000000000000000076e-06 5.183000000000000107e-03 9.899999999999999404e-05 1.499999999999999869e-04 5.191999999999999567e-03 4.199999999999999768e-05 -9.060000000000000128e-04 -5.143000000000000002e-03 1.140000000000000063e-04 -8.400000000000000348e-04 -5.363999999999999845e-03 9.600000000000000243e-05 -7.299999999999999903e-05 5.128999999999999879e-03 3.600000000000000091e-05 6.700000000000000226e-05 5.108999999999999826e-03 4.100000000000000047e-05 -8.220000000000000310e-04 -5.334000000000000200e-03 -3.499999999999999693e-05 -7.029999999999999574e-04 -5.231999999999999672e-03 5.199999999999999680e-05 -1.230000000000000082e-04 5.081999999999999712e-03 1.039999999999999936e-04 1.150000000000000035e-04 5.155999999999999993e-03 -7.499999999999999343e-05 -7.489999999999999913e-04 -5.374999999999999570e-03 -8.899999999999999491e-05 -6.960000000000000041e-04 -5.192999999999999700e-03 1.910000000000000077e-04 -1.730000000000000038e-04 5.217000000000000283e-03 1.949999999999999965e-04 1.069999999999999988e-04 5.153999999999999727e-03 6.700000000000000226e-05 -7.460000000000000268e-04 -5.336999999999999730e-03 1.640000000000000019e-04 -6.520000000000000188e-04 -5.211000000000000354e-03 1.740000000000000010e-04 -1.250000000000000026e-04 5.094999999999999703e-03 1.119999999999999983e-04 -8.399999999999999535e-05 5.264999999999999715e-03 -5.500000000000000196e-05 -8.019999999999999785e-04 -5.244999999999999662e-03 -3.800000000000000209e-05 -9.079999999999999530e-04 -5.223000000000000212e-03 7.700000000000000139e-05 2.900000000000000017e-05 5.102999999999999897e-03 8.299999999999999815e-05 -1.119999999999999983e-04 5.137000000000000073e-03 3.499999999999999693e-05 -7.159999999999999481e-04 -5.249000000000000193e-03 7.499999999999999343e-05 -8.149999999999999693e-04 -5.256000000000000255e-03 7.100000000000000462e-05 -6.399999999999999710e-05 5.100999999999999632e-03 1.540000000000000028e-04 -3.000000000000000076e-05 5.104000000000000030e-03 3.600000000000000091e-05 -8.019999999999999785e-04 -5.233999999999999937e-03 7.999999999999999638e-06 -8.469999999999999881e-04 -5.343999999999999792e-03 3.999999999999999819e-06 -5.399999999999999798e-05 5.290000000000000431e-03 4.300000000000000165e-05 6.499999999999999431e-05 5.218999999999999681e-03 -7.700000000000000139e-05 -7.990000000000000140e-04 -5.283000000000000369e-03 6.200000000000000270e-05 -8.509999999999999769e-04 -5.389999999999999826e-03 1.759999999999999954e-04 -9.500000000000000523e-05 5.192999999999999700e-03 2.770000000000000110e-04 3.000000000000000076e-05 5.223000000000000212e-03 2.599999999999999840e-05 -8.670000000000000406e-04 -5.279999999999999971e-03 4.000000000000000327e-05 -8.880000000000000089e-04 -5.353000000000000119e-03 1.669999999999999935e-04 7.899999999999999579e-05 5.218000000000000416e-03 5.000000000000000240e-05 2.599999999999999840e-05 5.274000000000000042e-03 6.799999999999999946e-05 -7.810000000000000102e-04 -5.290999999999999696e-03 -7.200000000000000182e-05 -7.879999999999999635e-04 -5.309000000000000351e-03 2.099999999999999884e-05 0.000000000000000000e+00 5.178000000000000311e-03 -1.699999999999999987e-05 5.599999999999999916e-05 5.030999999999999882e-03 -2.699999999999999899e-05 -8.009999999999999542e-04 -5.265999999999999848e-03 -1.320000000000000101e-04 -6.599999999999999964e-04 -5.215000000000000017e-03 2.190000000000000106e-04 2.300000000000000002e-05 5.209000000000000088e-03 2.249999999999999938e-04 -5.399999999999999798e-05 5.131000000000000144e-03 -1.599999999999999928e-05 -7.860000000000000233e-04 -5.284999999999999767e-03 1.840000000000000001e-04 -7.079999999999999705e-04 -5.239999999999999866e-03 1.410000000000000120e-04 -9.000000000000000228e-06 5.211000000000000354e-03 1.540000000000000028e-04 -7.999999999999999638e-06 5.113999999999999622e-03 6.099999999999999872e-05 -8.509999999999999769e-04 -5.270999999999999644e-03 -1.800000000000000046e-05 -7.219999999999999855e-04 -5.239999999999999866e-03 -2.779999999999999811e-04 -7.100000000000000462e-05 -5.580000000000000107e-04 -4.110000000000000155e-04 -2.667000000000000100e-03 -5.283999999999999635e-03 -3.110000000000000243e-04 2.269000000000000183e-03 4.290999999999999676e-03 -4.679999999999999915e-04 2.415000000000000046e-03 4.442999999999999901e-03 -2.519999999999999996e-04 2.919999999999999961e-04 -2.869999999999999830e-04 -3.490000000000000263e-04 -3.246999999999999886e-03 -5.382999999999999764e-03 -1.520000000000000084e-04 -1.099999999999999971e-05 -5.439999999999999957e-04 1.800000000000000046e-05 -2.621000000000000066e-03 -5.500999999999999814e-03 5.899999999999999754e-05 2.364999999999999915e-03 4.533999999999999836e-03 -1.000000000000000048e-04 2.328000000000000208e-03 4.551000000000000358e-03 1.939999999999999993e-04 1.520000000000000084e-04 -3.789999999999999966e-04 3.170000000000000075e-04 -2.988000000000000204e-03 -5.361999999999999579e-03 2.840000000000000185e-04 -1.050000000000000044e-04 -4.949999999999999973e-04 2.799999999999999755e-04 -2.807000000000000033e-03 -5.300000000000000024e-03 -6.200000000000000270e-05 2.296999999999999997e-03 4.414999999999999654e-03 1.050000000000000044e-04 2.412000000000000081e-03 4.407000000000000327e-03 -2.799999999999999958e-05 9.899999999999999404e-05 -3.739999999999999835e-04 1.210000000000000002e-04 -2.990000000000000036e-03 -5.257999999999999653e-03 -2.120000000000000031e-04 1.289999999999999914e-04 -9.000000000000000567e-05 1.800000000000000046e-05 -3.310000000000000008e-03 -5.243000000000000264e-03 -4.409999999999999858e-04 2.243000000000000202e-03 4.924999999999999691e-03 -3.959999999999999762e-04 1.775000000000000102e-03 4.774999999999999731e-03 -3.370000000000000057e-04 -6.809999999999999647e-04 3.490000000000000263e-04 -3.809999999999999910e-04 -2.304000000000000058e-03 -5.682000000000000418e-03 -5.800000000000000034e-05 -2.000000000000000164e-05 -1.299999999999999886e-04 -2.039999999999999984e-04 -3.289999999999999956e-03 -5.303999999999999687e-03 1.840000000000000001e-04 2.067999999999999960e-03 4.799000000000000314e-03 -5.700000000000000314e-05 1.840999999999999972e-03 5.100000000000000366e-03 6.799999999999999946e-05 -7.129999999999999836e-04 2.039999999999999984e-04 1.600000000000000131e-04 -2.428000000000000037e-03 -5.727999999999999585e-03 1.910000000000000077e-04 -5.000000000000000240e-05 -3.669999999999999760e-04 2.570000000000000127e-04 -3.416000000000000199e-03 -5.270000000000000379e-03 -9.399999999999999448e-05 2.128999999999999816e-03 4.709999999999999777e-03 1.730000000000000038e-04 1.778000000000000067e-03 4.654000000000000151e-03 1.820000000000000057e-04 -7.029999999999999574e-04 1.849999999999999973e-04 1.640000000000000019e-04 -2.501999999999999884e-03 -5.473999999999999699e-03 -2.579999999999999828e-04 4.899999999999999842e-05 4.600000000000000004e-05 -1.479999999999999925e-04 -2.922000000000000118e-03 -4.597000000000000391e-03 -6.290000000000000018e-04 3.027000000000000177e-03 4.854999999999999941e-03 -2.519999999999999996e-04 2.533000000000000095e-03 4.473000000000000413e-03 -3.570000000000000040e-04 1.849999999999999973e-04 -2.959999999999999849e-04 -3.370000000000000057e-04 -3.060999999999999919e-03 -5.021000000000000289e-03 -1.800000000000000113e-04 4.300000000000000165e-05 4.199999999999999768e-05 -2.439999999999999949e-04 -2.923999999999999950e-03 -4.866999999999999799e-03 2.280000000000000126e-04 2.769999999999999893e-03 4.676999999999999734e-03 -2.139999999999999975e-04 2.628999999999999827e-03 4.681000000000000265e-03 2.390000000000000089e-04 2.599999999999999772e-04 -2.910000000000000260e-04 2.099999999999999884e-05 -2.991999999999999868e-03 -5.303000000000000422e-03 3.280000000000000038e-04 1.019999999999999992e-04 -9.500000000000000523e-05 5.929999999999999941e-04 -2.809999999999999998e-03 -5.035999999999999678e-03 3.600000000000000091e-05 2.987000000000000072e-03 4.614000000000000046e-03 2.880000000000000073e-04 2.492999999999999990e-03 4.566999999999999879e-03 -3.899999999999999929e-05 2.269999999999999882e-04 -2.599999999999999772e-04 3.460000000000000076e-04 -2.877999999999999916e-03 -4.995000000000000308e-03 -3.159999999999999832e-04 -4.130000000000000099e-04 -5.580000000000000107e-04 -2.539999999999999940e-04 -3.237999999999999993e-03 -5.427999999999999665e-03 -5.230000000000000274e-04 2.226999999999999813e-03 3.902999999999999785e-03 -4.499999999999999877e-04 2.828999999999999918e-03 3.941000000000000059e-03 -3.530000000000000152e-04 3.029999999999999924e-04 -6.369999999999999794e-04 -4.350000000000000026e-04 -3.673000000000000050e-03 -5.303999999999999687e-03 1.399999999999999979e-05 -4.139999999999999800e-04 -5.800000000000000034e-04 1.190000000000000058e-04 -2.870999999999999854e-03 -5.402999999999999817e-03 3.029999999999999924e-04 2.269999999999999882e-03 3.925999999999999802e-03 -1.369999999999999961e-04 2.818000000000000192e-03 3.989999999999999623e-03 2.229999999999999994e-04 3.130000000000000187e-04 -6.070000000000000092e-04 3.119999999999999944e-04 -3.605999999999999830e-03 -5.396999999999999888e-03 2.020000000000000040e-04 -2.210000000000000050e-04 -6.359999999999999551e-04 2.439999999999999949e-04 -3.151999999999999854e-03 -5.229000000000000141e-03 -1.700000000000000122e-04 2.132999999999999913e-03 3.795999999999999895e-03 2.280000000000000126e-04 2.657000000000000074e-03 4.009000000000000410e-03 8.000000000000000654e-05 3.409999999999999945e-04 -7.010000000000000172e-04 1.520000000000000084e-04 -3.582999999999999814e-03 -5.307000000000000085e-03 -2.069999999999999900e-04 9.380000000000000317e-04 -7.470000000000000511e-04 -3.579999999999999741e-04 -2.392000000000000029e-03 -5.889000000000000137e-03 -5.450000000000000200e-04 3.004000000000000160e-03 4.464000000000000086e-03 -2.539999999999999940e-04 2.273999999999999980e-03 4.721000000000000370e-03 -4.130000000000000099e-04 -2.159999999999999919e-04 -2.460000000000000164e-04 -8.899999999999999491e-05 -2.054999999999999969e-03 -5.584999999999999687e-03 -1.800000000000000046e-05 8.409999999999999507e-04 -5.299999999999999807e-04 2.199999999999999943e-05 -2.618000000000000101e-03 -5.969999999999999613e-03 4.399999999999999886e-05 2.766999999999999928e-03 4.468999999999999882e-03 -4.139999999999999800e-04 2.318000000000000182e-03 4.832999999999999623e-03 1.179999999999999951e-04 -2.310000000000000042e-04 -6.999999999999999895e-06 2.590000000000000071e-04 -2.102000000000000136e-03 -5.494999999999999885e-03 1.420000000000000092e-04 8.660000000000000163e-04 -4.960000000000000216e-04 3.750000000000000078e-04 -2.592999999999999819e-03 -5.775999999999999884e-03 1.479999999999999925e-04 2.867000000000000191e-03 4.312999999999999994e-03 3.699999999999999947e-04 2.213999999999999822e-03 4.857000000000000206e-03 1.510000000000000112e-04 -8.500000000000000611e-05 -8.500000000000000611e-05 -9.699999999999999963e-05 -1.977000000000000025e-03 -5.385000000000000030e-03 -1.620000000000000075e-04 -2.990000000000000036e-04 -4.989999999999999861e-04 -2.809999999999999998e-04 -3.157000000000000084e-03 -4.937999999999999681e-03 -4.070000000000000267e-04 2.229000000000000078e-03 4.895000000000000046e-03 -3.029999999999999924e-04 1.827999999999999981e-03 4.386000000000000142e-03 -3.629999999999999872e-04 -5.529999999999999976e-04 -3.640000000000000115e-04 -4.679999999999999915e-04 -2.746999999999999876e-03 -5.695999999999999674e-03 -3.539999999999999853e-04 -3.260000000000000094e-04 -4.989999999999999861e-04 -2.229999999999999994e-04 -3.214999999999999976e-03 -5.202000000000000027e-03 9.000000000000000228e-06 2.347000000000000128e-03 5.065000000000000058e-03 -2.480000000000000108e-04 1.714999999999999945e-03 4.629999999999999567e-03 1.559999999999999972e-04 -3.060000000000000111e-04 -3.680000000000000003e-04 2.380000000000000117e-04 -2.841999999999999908e-03 -5.614000000000000067e-03 4.339999999999999782e-04 -2.390000000000000089e-04 -4.110000000000000155e-04 4.449999999999999746e-04 -3.085000000000000069e-03 -5.091000000000000039e-03 5.800000000000000034e-05 2.122000000000000188e-03 4.831000000000000225e-03 2.420000000000000005e-04 1.968999999999999830e-03 4.444000000000000034e-03 9.500000000000000523e-05 -4.099999999999999912e-04 -2.410000000000000033e-04 2.730000000000000222e-04 -2.762999999999999831e-03 -5.414000000000000409e-03 -3.910000000000000172e-04 -5.379999999999999583e-04 -2.030000000000000012e-04 -2.180000000000000134e-04 -3.141000000000000129e-03 -3.965999999999999907e-03 -5.490000000000000088e-04 1.853999999999999962e-03 4.837000000000000154e-03 -3.049999999999999868e-04 2.756999999999999902e-03 4.662999999999999610e-03 -1.820000000000000057e-04 1.810000000000000085e-04 -1.459999999999999981e-04 -4.679999999999999915e-04 -2.982999999999999974e-03 -4.629000000000000302e-03 -8.899999999999999491e-05 -4.150000000000000043e-04 -1.410000000000000120e-04 -1.179999999999999951e-04 -3.141000000000000129e-03 -4.224999999999999589e-03 2.200000000000000078e-04 1.930999999999999991e-03 4.765000000000000138e-03 1.099999999999999971e-05 2.844999999999999873e-03 4.843000000000000083e-03 2.110000000000000059e-04 3.789999999999999966e-04 -2.010000000000000068e-04 2.149999999999999947e-04 -2.918000000000000021e-03 -5.057999999999999996e-03 2.069999999999999900e-04 -4.389999999999999914e-04 -3.150000000000000131e-04 3.390000000000000001e-04 -2.893999999999999871e-03 -4.104000000000000009e-03 -6.600000000000000506e-05 1.667999999999999995e-03 4.669000000000000407e-03 -1.500000000000000038e-05 2.900999999999999933e-03 4.725000000000000033e-03 -5.199999999999999680e-05 2.190000000000000106e-04 -1.069999999999999988e-04 1.579999999999999916e-04 -2.955000000000000161e-03 -4.460000000000000422e-03 -3.209999999999999963e-04 4.229999999999999819e-04 -5.460000000000000443e-04 -2.599999999999999772e-04 -3.026000000000000044e-03 -4.970999999999999724e-03 -3.150000000000000131e-04 2.805999999999999901e-03 4.749999999999999882e-03 -4.459999999999999989e-04 2.354999999999999889e-03 4.151000000000000176e-03 -3.539999999999999853e-04 -4.189999999999999931e-04 -7.709999999999999840e-04 -2.809999999999999998e-04 -2.909000000000000127e-03 -4.439000000000000237e-03 5.300000000000000078e-05 3.069999999999999812e-04 -6.530000000000000431e-04 1.000000000000000082e-05 -3.389000000000000085e-03 -5.066000000000000190e-03 5.000000000000000240e-05 2.841000000000000209e-03 4.688999999999999592e-03 -3.359999999999999814e-04 2.126999999999999984e-03 4.125000000000000194e-03 1.410000000000000120e-04 -5.950000000000000427e-04 -7.640000000000000306e-04 4.730000000000000046e-04 -2.899999999999999800e-03 -4.641000000000000160e-03 2.290000000000000098e-04 2.660000000000000146e-04 -4.290000000000000193e-04 4.299999999999999894e-04 -3.357999999999999874e-03 -4.955000000000000203e-03 -6.799999999999999946e-05 3.027000000000000177e-03 4.566999999999999879e-03 4.310000000000000137e-04 2.294000000000000032e-03 4.253999999999999969e-03 2.900000000000000017e-05 -4.260000000000000006e-04 -7.860000000000000233e-04 -1.140000000000000063e-04 -2.792000000000000211e-03 -4.372000000000000018e-03 -1.890000000000000133e-04 2.500000000000000120e-05 -1.059999999999999961e-03 -1.399999999999999877e-04 -2.278000000000000077e-03 -5.185000000000000372e-03 -7.669999999999999951e-04 2.331999999999999872e-03 3.853999999999999787e-03 -4.440000000000000045e-04 1.600000000000000077e-03 4.322000000000000321e-03 -4.690000000000000158e-04 -1.500000000000000038e-05 -3.669999999999999760e-04 -5.029999999999999749e-04 -2.782999999999999884e-03 -5.751000000000000036e-03 -2.930000000000000204e-04 -1.299999999999999920e-05 -9.449999999999999850e-04 -3.139999999999999888e-04 -2.353000000000000057e-03 -5.436999999999999993e-03 1.890000000000000133e-04 2.344999999999999862e-03 3.982000000000000296e-03 -2.809999999999999998e-04 2.053999999999999836e-03 4.354000000000000231e-03 2.120000000000000031e-04 1.090000000000000067e-04 -4.519999999999999821e-04 2.959999999999999849e-04 -2.955000000000000161e-03 -5.446999999999999585e-03 3.690000000000000246e-04 2.900000000000000017e-05 -1.044000000000000006e-03 6.449999999999999570e-04 -2.376000000000000074e-03 -5.257999999999999653e-03 2.599999999999999772e-04 2.461000000000000080e-03 3.785999999999999869e-03 3.170000000000000075e-04 1.956999999999999972e-03 4.216000000000000129e-03 1.640000000000000019e-04 -2.400000000000000061e-05 -4.589999999999999896e-04 2.599999999999999772e-04 -2.867999999999999890e-03 -5.488999999999999956e-03