1.048403257999999916e+01 0.000000000000000000e+00 0.000000000000000000e+00 0.000000000000000000e+00 1.513239828000000031e+01 0.000000000000000000e+00 0.000000000000000000e+00 0.000000000000000000e+00 2.032374854000000042e+01
1.048403257999999916e+01 0.000000000000000000e+00 0.000000000000000000e+00 0.000000000000000000e+00 1.513239828000000031e+01 0.000000000000000000e+00 0.000000000000000000e+00 0.000000000000000000e+00 2.032374854000000042e+01
1.048403257999999916e+01 0.000000000000000000e+00 0.000000000000000000e+00 0.000000000000000000e+00 1.513239828000000031e+01 0.000000000000000000e+00 0.000000000000000000e+00 0.000000000000000000e+00 2.032374854000000042e+01
1.048403257999999916e+01 0.000000000000000000e+00 0.000000000000000000e+00 0.000000000000000000e+00 1.513239828000000031e+01 0.000000000000000000e+00 0.000000000000000000e+00 0.000000000000000000e+00 2.032374854000000042e+01
1.048403257999999916e+01 0.000000000000000000e+00 0.000000000000000000e+00 0.000000000000000000e+00 1.513239828000000031e+01 0.000000000000000000e+00 0.000000000000000000e+00 0.000000000000000000e+00 2.032374854000000042e+01
