1.399999999999999877e-04 1.511242999999999981e+01 4.639560000000000350e+00 1.747479999999999922e+00 2.502099999999999991e+00 4.639560000000000350e+00 1.499999999999999869e-04 3.382610000000000117e+00 2.108530000000000015e+00 1.747489999999999988e+00 8.605500000000000371e-01 2.108530000000000015e+00 3.494819999999999816e+00 1.511242999999999981e+01 4.639560000000000350e+00 5.242160000000000153e+00 2.502099999999999991e+00 4.639560000000000350e+00 3.494819999999999816e+00 3.382610000000000117e+00 2.108530000000000015e+00 5.242160000000000153e+00 8.605500000000000371e-01 2.108530000000000015e+00 6.989499999999999602e+00 1.511242999999999981e+01 4.639560000000000350e+00 8.736840000000000828e+00 2.502099999999999991e+00 4.639560000000000350e+00 6.989499999999999602e+00 3.382610000000000117e+00 2.108530000000000015e+00 8.736840000000000828e+00 8.605500000000000371e-01 2.108530000000000015e+00 1.399999999999999877e-04 5.024169999999999803e+00 4.639560000000000350e+00 1.747479999999999922e+00 7.546230000000000437e+00 4.639560000000000350e+00 1.499999999999999869e-04 8.426750000000000185e+00 2.108530000000000015e+00 1.747489999999999988e+00 5.904679999999999929e+00 2.108530000000000015e+00 3.494819999999999816e+00 5.024169999999999803e+00 4.639560000000000350e+00 5.242160000000000153e+00 7.546230000000000437e+00 4.639560000000000350e+00 3.494819999999999816e+00 8.426750000000000185e+00 2.108530000000000015e+00 5.242160000000000153e+00 5.904679999999999929e+00 2.108530000000000015e+00 6.989499999999999602e+00 5.024169999999999803e+00 4.639560000000000350e+00 8.736840000000000828e+00 7.546230000000000437e+00 4.639560000000000350e+00 6.989499999999999602e+00 8.426750000000000185e+00 2.108530000000000015e+00 8.736840000000000828e+00 5.904679999999999929e+00 2.108530000000000015e+00 1.399999999999999877e-04 1.006830000000000069e+01 4.639560000000000350e+00 1.747479999999999922e+00 1.259037000000000006e+01 4.639560000000000350e+00 1.499999999999999869e-04 1.347087999999999930e+01 2.108530000000000015e+00 1.747489999999999988e+00 1.094880999999999993e+01 2.108530000000000015e+00 3.494819999999999816e+00 1.006830000000000069e+01 4.639560000000000350e+00 5.242160000000000153e+00 1.259037000000000006e+01 4.639560000000000350e+00 3.494819999999999816e+00 1.347087999999999930e+01 2.108530000000000015e+00 5.242160000000000153e+00 1.094880999999999993e+01 2.108530000000000015e+00 6.989499999999999602e+00 1.006830000000000069e+01 4.639560000000000350e+00 8.736840000000000828e+00 1.259037000000000006e+01 4.639560000000000350e+00 6.989499999999999602e+00 1.347087999999999930e+01 2.108530000000000015e+00 8.736840000000000828e+00 1.094880999999999993e+01 2.108530000000000015e+00 1.399999999999999877e-04 1.511242999999999981e+01 1.141413999999999973e+01 1.747479999999999922e+00 2.502099999999999991e+00 1.141413999999999973e+01 1.499999999999999869e-04 3.382610000000000117e+00 8.883110000000000284e+00 1.747489999999999988e+00 8.605500000000000371e-01 8.883110000000000284e+00 3.494819999999999816e+00 1.511242999999999981e+01 1.141413999999999973e+01 5.242160000000000153e+00 2.502099999999999991e+00 1.141413999999999973e+01 3.494819999999999816e+00 3.382610000000000117e+00 8.883110000000000284e+00 5.242160000000000153e+00 8.605500000000000371e-01 8.883110000000000284e+00 6.989499999999999602e+00 1.511242999999999981e+01 1.141413999999999973e+01 8.736840000000000828e+00 2.502099999999999991e+00 1.141413999999999973e+01 6.989499999999999602e+00 3.382610000000000117e+00 8.883110000000000284e+00 8.736840000000000828e+00 8.605500000000000371e-01 8.883110000000000284e+00 1.399999999999999877e-04 5.024169999999999803e+00 1.141413999999999973e+01 1.747479999999999922e+00 7.546230000000000437e+00 1.141413999999999973e+01 1.499999999999999869e-04 8.426750000000000185e+00 8.883110000000000284e+00 1.747489999999999988e+00 5.904679999999999929e+00 8.883110000000000284e+00 3.494819999999999816e+00 5.024169999999999803e+00 1.141413999999999973e+01 5.242160000000000153e+00 7.546230000000000437e+00 1.141413999999999973e+01 3.494819999999999816e+00 8.426750000000000185e+00 8.883110000000000284e+00 5.242160000000000153e+00 5.904679999999999929e+00 8.883110000000000284e+00 6.989499999999999602e+00 5.024169999999999803e+00 1.141413999999999973e+01 8.736840000000000828e+00 7.546230000000000437e+00 1.141413999999999973e+01 6.989499999999999602e+00 8.426750000000000185e+00 8.883110000000000284e+00 8.736840000000000828e+00 5.904679999999999929e+00 8.883110000000000284e+00 1.399999999999999877e-04 1.006830000000000069e+01 1.141413999999999973e+01 1.747479999999999922e+00 1.259037000000000006e+01 1.141413999999999973e+01 1.499999999999999869e-04 1.347087999999999930e+01 8.883110000000000284e+00 1.747489999999999988e+00 1.094880999999999993e+01 8.883110000000000284e+00 3.494819999999999816e+00 1.006830000000000069e+01 1.141413999999999973e+01 5.242160000000000153e+00 1.259037000000000006e+01 1.141413999999999973e+01 3.494819999999999816e+00 1.347087999999999930e+01 8.883110000000000284e+00 5.242160000000000153e+00 1.094880999999999993e+01 8.883110000000000284e+00 6.989499999999999602e+00 1.006830000000000069e+01 1.141413999999999973e+01 8.736840000000000828e+00 1.259037000000000006e+01 1.141413999999999973e+01 6.989499999999999602e+00 1.347087999999999930e+01 8.883110000000000284e+00 8.736840000000000828e+00 1.094880999999999993e+01 8.883110000000000284e+00 1.399999999999999877e-04 1.511242999999999981e+01 1.818872000000000000e+01 1.747479999999999922e+00 2.502099999999999991e+00 1.818872999999999962e+01 1.499999999999999869e-04 3.382610000000000117e+00 1.565770000000000017e+01 1.747489999999999988e+00 8.605500000000000371e-01 1.565770000000000017e+01 3.494819999999999816e+00 1.511242999999999981e+01 1.818872000000000000e+01 5.242160000000000153e+00 2.502099999999999991e+00 1.818872999999999962e+01 3.494819999999999816e+00 3.382610000000000117e+00 1.565770000000000017e+01 5.242160000000000153e+00 8.605500000000000371e-01 1.565770000000000017e+01 6.989499999999999602e+00 1.511242999999999981e+01 1.818872000000000000e+01 8.736840000000000828e+00 2.502099999999999991e+00 1.818872999999999962e+01 6.989499999999999602e+00 3.382610000000000117e+00 1.565770000000000017e+01 8.736840000000000828e+00 8.605500000000000371e-01 1.565770000000000017e+01 1.399999999999999877e-04 5.024169999999999803e+00 1.818872000000000000e+01 1.747479999999999922e+00 7.546230000000000437e+00 1.818872999999999962e+01 1.499999999999999869e-04 8.426750000000000185e+00 1.565770000000000017e+01 1.747489999999999988e+00 5.904679999999999929e+00 1.565770000000000017e+01 3.494819999999999816e+00 5.024169999999999803e+00 1.818872000000000000e+01 5.242160000000000153e+00 7.546230000000000437e+00 1.818872999999999962e+01 3.494819999999999816e+00 8.426750000000000185e+00 1.565770000000000017e+01 5.242160000000000153e+00 5.904679999999999929e+00 1.565770000000000017e+01 6.989499999999999602e+00 5.024169999999999803e+00 1.818872000000000000e+01 8.736840000000000828e+00 7.546230000000000437e+00 1.818872999999999962e+01 6.989499999999999602e+00 8.426750000000000185e+00 1.565770000000000017e+01 8.736840000000000828e+00 5.904679999999999929e+00 1.565770000000000017e+01 1.399999999999999877e-04 1.006830000000000069e+01 1.818872000000000000e+01 1.747479999999999922e+00 1.259037000000000006e+01 1.818872999999999962e+01 1.499999999999999869e-04 1.347087999999999930e+01 1.565770000000000017e+01 1.747489999999999988e+00 1.094880999999999993e+01 1.565770000000000017e+01 3.494819999999999816e+00 1.006830000000000069e+01 1.818872000000000000e+01 5.242160000000000153e+00 1.259037000000000006e+01 1.818872999999999962e+01 3.494819999999999816e+00 1.347087999999999930e+01 1.565770000000000017e+01 5.242160000000000153e+00 1.094880999999999993e+01 1.565770000000000017e+01 6.989499999999999602e+00 1.006830000000000069e+01 1.818872000000000000e+01 8.736840000000000828e+00 1.259037000000000006e+01 1.818872999999999962e+01 6.989499999999999602e+00 1.347087999999999930e+01 1.565770000000000017e+01 8.736840000000000828e+00 1.094880999999999993e+01 1.565770000000000017e+01 1.499999999999999869e-04 1.681329999999999991e+00 3.374060000000000059e+00 1.399999999999999877e-04 3.262890000000000068e+00 5.615039999999999587e+00 1.747489999999999988e+00 2.621879999999999988e+00 1.133010000000000073e+00 1.499999999999999869e-04 9.980999999999999595e-02 1.133010000000000073e+00 1.747489999999999988e+00 4.203389999999999738e+00 3.374060000000000059e+00 1.747479999999999922e+00 7.408299999999999885e-01 5.615039999999999587e+00 3.494819999999999816e+00 1.681329999999999991e+00 3.374060000000000059e+00 3.494819999999999816e+00 3.262890000000000068e+00 5.615039999999999587e+00 5.242160000000000153e+00 2.621879999999999988e+00 1.133010000000000073e+00 3.494829999999999881e+00 9.980999999999999595e-02 1.133010000000000073e+00 5.242160000000000153e+00 4.203389999999999738e+00 3.374060000000000059e+00 5.242160000000000153e+00 7.408299999999999885e-01 5.615039999999999587e+00 6.989499999999999602e+00 1.681329999999999991e+00 3.374060000000000059e+00 6.989489999999999981e+00 3.262890000000000068e+00 5.615039999999999587e+00 8.736840000000000828e+00 2.621879999999999988e+00 1.133010000000000073e+00 6.989499999999999602e+00 9.980999999999999595e-02 1.133010000000000073e+00 8.736840000000000828e+00 4.203389999999999738e+00 3.374060000000000059e+00 8.736829999999999430e+00 7.408299999999999885e-01 5.615039999999999587e+00 1.499999999999999869e-04 6.725459999999999994e+00 3.374060000000000059e+00 1.399999999999999877e-04 8.307019999999999627e+00 5.615039999999999587e+00 1.747489999999999988e+00 7.666009999999999991e+00 1.133010000000000073e+00 1.499999999999999869e-04 5.143939999999999735e+00 1.133010000000000073e+00 1.747489999999999988e+00 9.247529999999999362e+00 3.374060000000000059e+00 1.747479999999999922e+00 5.784959999999999880e+00 5.615039999999999587e+00 3.494819999999999816e+00 6.725459999999999994e+00 3.374060000000000059e+00 3.494819999999999816e+00 8.307019999999999627e+00 5.615039999999999587e+00 5.242160000000000153e+00 7.666009999999999991e+00 1.133010000000000073e+00 3.494829999999999881e+00 5.143939999999999735e+00 1.133010000000000073e+00 5.242160000000000153e+00 9.247529999999999362e+00 3.374060000000000059e+00 5.242160000000000153e+00 5.784959999999999880e+00 5.615039999999999587e+00 6.989499999999999602e+00 6.725459999999999994e+00 3.374060000000000059e+00 6.989489999999999981e+00 8.307019999999999627e+00 5.615039999999999587e+00 8.736840000000000828e+00 7.666009999999999991e+00 1.133010000000000073e+00 6.989499999999999602e+00 5.143939999999999735e+00 1.133010000000000073e+00 8.736840000000000828e+00 9.247529999999999362e+00 3.374060000000000059e+00 8.736829999999999430e+00 5.784959999999999880e+00 5.615039999999999587e+00 1.499999999999999869e-04 1.176960000000000051e+01 3.374060000000000059e+00 1.399999999999999877e-04 1.335116000000000014e+01 5.615039999999999587e+00 1.747489999999999988e+00 1.271014000000000088e+01 1.133010000000000073e+00 1.499999999999999869e-04 1.018807999999999936e+01 1.133010000000000073e+00 1.747489999999999988e+00 1.429166000000000025e+01 3.374060000000000059e+00 1.747479999999999922e+00 1.082909000000000077e+01 5.615039999999999587e+00 3.494819999999999816e+00 1.176960000000000051e+01 3.374060000000000059e+00 3.494819999999999816e+00 1.335116000000000014e+01 5.615039999999999587e+00 5.242160000000000153e+00 1.271014000000000088e+01 1.133010000000000073e+00 3.494829999999999881e+00 1.018807999999999936e+01 1.133010000000000073e+00 5.242160000000000153e+00 1.429166000000000025e+01 3.374060000000000059e+00 5.242160000000000153e+00 1.082909000000000077e+01 5.615039999999999587e+00 6.989499999999999602e+00 1.176960000000000051e+01 3.374060000000000059e+00 6.989489999999999981e+00 1.335116000000000014e+01 5.615039999999999587e+00 8.736840000000000828e+00 1.271014000000000088e+01 1.133010000000000073e+00 6.989499999999999602e+00 1.018807999999999936e+01 1.133010000000000073e+00 8.736840000000000828e+00 1.429166000000000025e+01 3.374060000000000059e+00 8.736829999999999430e+00 1.082909000000000077e+01 5.615039999999999587e+00 1.499999999999999869e-04 1.681329999999999991e+00 1.014864999999999995e+01 1.399999999999999877e-04 3.262890000000000068e+00 1.238962000000000074e+01 1.747489999999999988e+00 2.621879999999999988e+00 7.907589999999999897e+00 1.499999999999999869e-04 9.980999999999999595e-02 7.907589999999999897e+00 1.747489999999999988e+00 4.203389999999999738e+00 1.014864000000000033e+01 1.747479999999999922e+00 7.408299999999999885e-01 1.238962000000000074e+01 3.494819999999999816e+00 1.681329999999999991e+00 1.014864999999999995e+01 3.494819999999999816e+00 3.262890000000000068e+00 1.238962000000000074e+01 5.242160000000000153e+00 2.621879999999999988e+00 7.907589999999999897e+00 3.494829999999999881e+00 9.980999999999999595e-02 7.907589999999999897e+00 5.242160000000000153e+00 4.203389999999999738e+00 1.014864000000000033e+01 5.242160000000000153e+00 7.408299999999999885e-01 1.238962000000000074e+01 6.989499999999999602e+00 1.681329999999999991e+00 1.014864999999999995e+01 6.989489999999999981e+00 3.262890000000000068e+00 1.238962000000000074e+01 8.736840000000000828e+00 2.621879999999999988e+00 7.907589999999999897e+00 6.989499999999999602e+00 9.980999999999999595e-02 7.907589999999999897e+00 8.736840000000000828e+00 4.203389999999999738e+00 1.014864000000000033e+01 8.736829999999999430e+00 7.408299999999999885e-01 1.238962000000000074e+01 1.499999999999999869e-04 6.725459999999999994e+00 1.014864999999999995e+01 1.399999999999999877e-04 8.307019999999999627e+00 1.238962000000000074e+01 1.747489999999999988e+00 7.666009999999999991e+00 7.907589999999999897e+00 1.499999999999999869e-04 5.143939999999999735e+00 7.907589999999999897e+00 1.747489999999999988e+00 9.247529999999999362e+00 1.014864000000000033e+01 1.747479999999999922e+00 5.784959999999999880e+00 1.238962000000000074e+01 3.494819999999999816e+00 6.725459999999999994e+00 1.014864999999999995e+01 3.494819999999999816e+00 8.307019999999999627e+00 1.238962000000000074e+01 5.242160000000000153e+00 7.666009999999999991e+00 7.907589999999999897e+00 3.494829999999999881e+00 5.143939999999999735e+00 7.907589999999999897e+00 5.242160000000000153e+00 9.247529999999999362e+00 1.014864000000000033e+01 5.242160000000000153e+00 5.784959999999999880e+00 1.238962000000000074e+01 6.989499999999999602e+00 6.725459999999999994e+00 1.014864999999999995e+01 6.989489999999999981e+00 8.307019999999999627e+00 1.238962000000000074e+01 8.736840000000000828e+00 7.666009999999999991e+00 7.907589999999999897e+00 6.989499999999999602e+00 5.143939999999999735e+00 7.907589999999999897e+00 8.736840000000000828e+00 9.247529999999999362e+00 1.014864000000000033e+01 8.736829999999999430e+00 5.784959999999999880e+00 1.238962000000000074e+01 1.499999999999999869e-04 1.176960000000000051e+01 1.014864999999999995e+01 1.399999999999999877e-04 1.335116000000000014e+01 1.238962000000000074e+01 1.747489999999999988e+00 1.271014000000000088e+01 7.907589999999999897e+00 1.499999999999999869e-04 1.018807999999999936e+01 7.907589999999999897e+00 1.747489999999999988e+00 1.429166000000000025e+01 1.014864000000000033e+01 1.747479999999999922e+00 1.082909000000000077e+01 1.238962000000000074e+01 3.494819999999999816e+00 1.176960000000000051e+01 1.014864999999999995e+01 3.494819999999999816e+00 1.335116000000000014e+01 1.238962000000000074e+01 5.242160000000000153e+00 1.271014000000000088e+01 7.907589999999999897e+00 3.494829999999999881e+00 1.018807999999999936e+01 7.907589999999999897e+00 5.242160000000000153e+00 1.429166000000000025e+01 1.014864000000000033e+01 5.242160000000000153e+00 1.082909000000000077e+01 1.238962000000000074e+01 6.989499999999999602e+00 1.176960000000000051e+01 1.014864999999999995e+01 6.989489999999999981e+00 1.335116000000000014e+01 1.238962000000000074e+01 8.736840000000000828e+00 1.271014000000000088e+01 7.907589999999999897e+00 6.989499999999999602e+00 1.018807999999999936e+01 7.907589999999999897e+00 8.736840000000000828e+00 1.429166000000000025e+01 1.014864000000000033e+01 8.736829999999999430e+00 1.082909000000000077e+01 1.238962000000000074e+01 1.499999999999999869e-04 1.681329999999999991e+00 1.692323000000000022e+01 1.399999999999999877e-04 3.262890000000000068e+00 1.916420000000000101e+01 1.747489999999999988e+00 2.621879999999999988e+00 1.468216999999999928e+01 1.499999999999999869e-04 9.980999999999999595e-02 1.468216999999999928e+01 1.747489999999999988e+00 4.203389999999999738e+00 1.692323000000000022e+01 1.747479999999999922e+00 7.408299999999999885e-01 1.916420000000000101e+01 3.494819999999999816e+00 1.681329999999999991e+00 1.692323000000000022e+01 3.494819999999999816e+00 3.262890000000000068e+00 1.916420000000000101e+01 5.242160000000000153e+00 2.621879999999999988e+00 1.468216999999999928e+01 3.494829999999999881e+00 9.980999999999999595e-02 1.468216999999999928e+01 5.242160000000000153e+00 4.203389999999999738e+00 1.692323000000000022e+01 5.242160000000000153e+00 7.408299999999999885e-01 1.916420000000000101e+01 6.989499999999999602e+00 1.681329999999999991e+00 1.692323000000000022e+01 6.989489999999999981e+00 3.262890000000000068e+00 1.916420000000000101e+01 8.736840000000000828e+00 2.621879999999999988e+00 1.468216999999999928e+01 6.989499999999999602e+00 9.980999999999999595e-02 1.468216999999999928e+01 8.736840000000000828e+00 4.203389999999999738e+00 1.692323000000000022e+01 8.736829999999999430e+00 7.408299999999999885e-01 1.916420000000000101e+01 1.499999999999999869e-04 6.725459999999999994e+00 1.692323000000000022e+01 1.399999999999999877e-04 8.307019999999999627e+00 1.916420000000000101e+01 1.747489999999999988e+00 7.666009999999999991e+00 1.468216999999999928e+01 1.499999999999999869e-04 5.143939999999999735e+00 1.468216999999999928e+01 1.747489999999999988e+00 9.247529999999999362e+00 1.692323000000000022e+01 1.747479999999999922e+00 5.784959999999999880e+00 1.916420000000000101e+01 3.494819999999999816e+00 6.725459999999999994e+00 1.692323000000000022e+01 3.494819999999999816e+00 8.307019999999999627e+00 1.916420000000000101e+01 5.242160000000000153e+00 7.666009999999999991e+00 1.468216999999999928e+01 3.494829999999999881e+00 5.143939999999999735e+00 1.468216999999999928e+01 5.242160000000000153e+00 9.247529999999999362e+00 1.692323000000000022e+01 5.242160000000000153e+00 5.784959999999999880e+00 1.916420000000000101e+01 6.989499999999999602e+00 6.725459999999999994e+00 1.692323000000000022e+01 6.989489999999999981e+00 8.307019999999999627e+00 1.916420000000000101e+01 8.736840000000000828e+00 7.666009999999999991e+00 1.468216999999999928e+01 6.989499999999999602e+00 5.143939999999999735e+00 1.468216999999999928e+01 8.736840000000000828e+00 9.247529999999999362e+00 1.692323000000000022e+01 8.736829999999999430e+00 5.784959999999999880e+00 1.916420000000000101e+01 1.499999999999999869e-04 1.176960000000000051e+01 1.692323000000000022e+01 1.399999999999999877e-04 1.335116000000000014e+01 1.916420000000000101e+01 1.747489999999999988e+00 1.271014000000000088e+01 1.468216999999999928e+01 1.499999999999999869e-04 1.018807999999999936e+01 1.468216999999999928e+01 1.747489999999999988e+00 1.429166000000000025e+01 1.692323000000000022e+01 1.747479999999999922e+00 1.082909000000000077e+01 1.916420000000000101e+01 3.494819999999999816e+00 1.176960000000000051e+01 1.692323000000000022e+01 3.494819999999999816e+00 1.335116000000000014e+01 1.916420000000000101e+01 5.242160000000000153e+00 1.271014000000000088e+01 1.468216999999999928e+01 3.494829999999999881e+00 1.018807999999999936e+01 1.468216999999999928e+01 5.242160000000000153e+00 1.429166000000000025e+01 1.692323000000000022e+01 5.242160000000000153e+00 1.082909000000000077e+01 1.916420000000000101e+01 6.989499999999999602e+00 1.176960000000000051e+01 1.692323000000000022e+01 6.989489999999999981e+00 1.335116000000000014e+01 1.916420000000000101e+01 8.736840000000000828e+00 1.271014000000000088e+01 1.468216999999999928e+01 6.989499999999999602e+00 1.018807999999999936e+01 1.468216999999999928e+01 8.736840000000000828e+00 1.429166000000000025e+01 1.692323000000000022e+01 8.736829999999999430e+00 1.082909000000000077e+01 1.916420000000000101e+01