-2.777751500939999914e+03
-2.777715232099999866e+03
-2.777607320179999988e+03
-2.777428451440000117e+03
-2.777179801799999950e+03
