1.000000000000000048e-04 -8.489000000000000018e-03 -9.179999999999999792e-04 2.210000000000000050e-04 -8.307000000000000148e-03 -1.294000000000000011e-03 -5.000000000000000240e-05 8.781000000000000610e-03 6.579999999999999478e-04 -9.200000000000000007e-05 9.020999999999999505e-03 7.240000000000000342e-04 -7.200000000000000182e-05 -8.189999999999999364e-03 -1.085000000000000027e-03 1.550000000000000000e-04 -8.045999999999999333e-03 -1.229000000000000058e-03 -8.399999999999999535e-05 8.814000000000000654e-03 6.579999999999999478e-04 4.399999999999999886e-05 8.994999999999999524e-03 6.679999999999999740e-04 1.110000000000000011e-04 -8.004000000000000697e-03 -1.252999999999999991e-03 -2.339999999999999958e-04 -8.092000000000000234e-03 -1.314999999999999980e-03 -4.100000000000000047e-05 8.658000000000000765e-03 8.440000000000000236e-04 -1.689999999999999879e-04 8.970999999999999808e-03 6.310000000000000504e-04 -2.640000000000000202e-04 -7.962999999999999592e-03 -1.150999999999999896e-03 -2.930000000000000204e-04 -8.085999999999999438e-03 -9.550000000000000112e-04 2.079999999999999872e-04 8.772999999999999549e-03 6.189999999999999756e-04 -4.399999999999999886e-05 8.819000000000000450e-03 5.479999999999999845e-04 3.209999999999999963e-04 -8.243999999999999592e-03 -1.059999999999999961e-03 1.769999999999999926e-04 -8.639000000000000845e-03 -7.290000000000000473e-04 -5.000000000000000104e-04 8.883000000000000271e-03 4.650000000000000270e-04 -1.920000000000000049e-04 8.415999999999999870e-03 8.630000000000000518e-04 4.300000000000000165e-05 -8.245000000000000592e-03 -8.339999999999999974e-04 2.280000000000000126e-04 -8.418000000000000135e-03 -6.509999999999999945e-04 5.199999999999999680e-05 8.486999999999999753e-03 9.420000000000000205e-04 6.099999999999999872e-05 8.569999999999999493e-03 8.710000000000000294e-04 2.300000000000000070e-04 -8.233000000000000734e-03 -6.009999999999999717e-04 -1.890000000000000133e-04 -8.233000000000000734e-03 -7.240000000000000342e-04 -6.600000000000000506e-05 8.994999999999999524e-03 7.529999999999999801e-04 -3.800000000000000209e-05 8.828000000000000777e-03 5.900000000000000296e-04 -4.389999999999999914e-04 -8.063000000000000722e-03 -8.760000000000000425e-04 -1.600000000000000131e-04 -7.908000000000000099e-03 -1.079000000000000098e-03 -1.069999999999999988e-04 8.956999999999999684e-03 7.209999999999999612e-04 -5.230000000000000274e-04 9.039999999999999425e-03 5.789999999999999791e-04 3.690000000000000246e-04 -8.359000000000000111e-03 -7.339999999999999520e-04 4.899999999999999842e-04 -8.085000000000000173e-03 -8.210000000000000067e-04 -1.699999999999999987e-05 9.258000000000000604e-03 5.559999999999999621e-04 3.559999999999999797e-04 9.081000000000000530e-03 7.230000000000000098e-04 1.930000000000000021e-04 -8.304999999999999882e-03 -9.539999999999999869e-04 1.500000000000000038e-05 -8.123999999999999277e-03 -9.700000000000000505e-04 -2.200000000000000078e-04 9.268000000000000196e-03 5.810000000000000277e-04 -2.550000000000000183e-04 8.791000000000000203e-03 4.879999999999999898e-04 -1.450000000000000009e-04 -8.528000000000000858e-03 -7.309999999999999875e-04 -1.499999999999999869e-04 -8.040000000000000271e-03 -1.196000000000000014e-03 -1.039999999999999936e-04 9.093000000000000388e-03 6.769999999999999759e-04 -1.330000000000000073e-04 8.942000000000000295e-03 5.150000000000000498e-04 1.039999999999999936e-04 -8.392999999999999419e-03 -9.190000000000000035e-04 2.460000000000000164e-04 -7.962000000000000327e-03 -1.214999999999999934e-03 1.090000000000000067e-04 9.298999999999999974e-03 5.000000000000000104e-04 1.710000000000000094e-04 8.897999999999999660e-03 4.409999999999999858e-04 -1.060000000000000016e-04 -7.753000000000000343e-03 -1.111999999999999924e-03 -1.600000000000000131e-04 -8.236000000000000265e-03 -1.031999999999999931e-03 -1.320000000000000101e-04 8.722000000000000586e-03 7.940000000000000009e-04 -3.660000000000000059e-04 9.013000000000000178e-03 8.390000000000000105e-04 2.300000000000000002e-05 -7.875000000000000056e-03 -1.108000000000000044e-03 4.600000000000000004e-05 -8.175999999999999240e-03 -1.128000000000000096e-03 1.900000000000000105e-05 8.734999999999999709e-03 9.079999999999999530e-04 1.310000000000000129e-04 9.062000000000000610e-03 7.050000000000000060e-04 2.139999999999999975e-04 -7.641000000000000222e-03 -1.265999999999999981e-03 2.460000000000000164e-04 -8.401999999999999746e-03 -9.550000000000000112e-04 -8.600000000000000331e-05 8.677000000000000685e-03 8.090000000000000403e-04 1.900000000000000105e-05 8.897999999999999660e-03 6.980000000000000527e-04 -5.000000000000000240e-05 -8.630000000000000518e-03 -1.038000000000000077e-03 2.689999999999999791e-04 -8.018000000000000821e-03 -1.064000000000000059e-03 -1.219999999999999974e-04 8.807000000000000592e-03 3.469999999999999777e-04 -1.949999999999999965e-04 8.909000000000000252e-03 5.619999999999999996e-04 3.649999999999999816e-04 -8.361999999999999642e-03 -1.059000000000000045e-03 -1.510000000000000112e-04 -8.482999999999999222e-03 -7.649999999999999465e-04 -3.119999999999999944e-04 8.658000000000000765e-03 6.509999999999999945e-04 -5.899999999999999754e-05 8.658000000000000765e-03 9.039999999999999642e-04 -1.689999999999999879e-04 -8.342000000000000456e-03 -9.579999999999999757e-04 2.599999999999999840e-05 -8.238999999999999796e-03 -1.106999999999999911e-03 2.269999999999999882e-04 8.578999999999999820e-03 6.130000000000000466e-04 2.400000000000000061e-05 8.999999999999999320e-03 5.339999999999999695e-04 -7.799999999999999859e-05 -8.023000000000000617e-03 -9.110000000000000259e-04 1.119999999999999983e-04 -7.886999999999999914e-03 -1.126999999999999964e-03 1.849999999999999973e-04 9.185999999999999721e-03 7.460000000000000268e-04 5.500000000000000196e-05 9.162999999999999270e-03 6.970000000000000284e-04 2.599999999999999772e-04 -7.988999999999999574e-03 -9.579999999999999757e-04 -1.910000000000000077e-04 -8.328999999999999598e-03 -1.012000000000000096e-03 -3.939999999999999817e-04 8.914999999999999314e-03 9.250000000000000409e-04 -2.979999999999999793e-04 8.810000000000000123e-03 9.730000000000000151e-04 -4.699999999999999724e-05 -8.051000000000000864e-03 -8.130000000000000291e-04 2.359999999999999902e-04 -8.193999999999999895e-03 -1.054999999999999948e-03 1.000000000000000082e-05 8.878999999999999740e-03 1.033000000000000064e-03 3.399999999999999973e-05 8.916000000000000314e-03 9.250000000000000409e-04 3.260000000000000094e-04 -8.210000000000000284e-03 -1.147999999999999932e-03 1.630000000000000047e-04 -8.368000000000000438e-03 -9.640000000000000131e-04 -5.300000000000000078e-05 8.536999999999999450e-03 5.730000000000000501e-04 -2.829999999999999942e-04 8.812000000000000388e-03 6.750000000000000357e-04 -3.499999999999999964e-04 -8.260999999999999246e-03 -1.141000000000000087e-03 -4.879999999999999898e-04 -8.068000000000000518e-03 -1.315999999999999896e-03 -1.450000000000000009e-04 8.496999999999999345e-03 7.510000000000000399e-04 -3.089999999999999756e-04 8.920000000000000845e-03 7.429999999999999539e-04 1.700000000000000122e-04 -8.248999999999999388e-03 -1.309000000000000051e-03 4.369999999999999970e-04 -8.279999999999999166e-03 -1.309999999999999967e-03 1.699999999999999987e-05 8.916999999999999579e-03 4.629999999999999784e-04 3.739999999999999835e-04 8.906999999999999987e-03 5.869999999999999567e-04 1.379999999999999933e-04 -8.415999999999999870e-03 -9.849999999999999815e-04 7.899999999999999579e-05 -8.049999999999999864e-03 -9.009999999999999997e-04 -1.200000000000000030e-04 9.036000000000000629e-03 7.910000000000000364e-04 -1.669999999999999935e-04 8.623999999999999722e-03 7.910000000000000364e-04 1.500000000000000038e-05 -8.569000000000000228e-03 -8.170000000000000179e-04 6.700000000000000226e-05 -7.993999999999999370e-03 -9.669999999999999776e-04 1.289999999999999914e-04 9.199999999999999845e-03 6.780000000000000002e-04 2.429999999999999977e-04 8.784999999999999407e-03 5.509999999999999490e-04 -3.199999999999999855e-05 -8.000999999999999432e-03 -1.265000000000000065e-03 3.000000000000000076e-06 -7.962000000000000327e-03 -9.690000000000000262e-04 -1.789999999999999870e-04 8.836000000000000104e-03 8.000000000000000383e-04 -2.900000000000000017e-04 8.625999999999999987e-03 5.519999999999999733e-04 1.000000000000000082e-05 -1.610000000000000103e-04 -6.279999999999999775e-04 -5.399999999999999798e-05 1.183000000000000024e-03 -1.802999999999999915e-03 8.200000000000000095e-05 -1.928000000000000026e-03 2.103999999999999967e-03 -6.000000000000000152e-06 -1.842000000000000104e-03 2.164000000000000125e-03 8.100000000000000375e-05 -3.069999999999999812e-04 -6.310000000000000504e-04 1.589999999999999888e-04 1.286999999999999950e-03 -2.164999999999999824e-03 1.299999999999999920e-05 -2.950000000000000148e-04 -5.249999999999999676e-04 3.300000000000000253e-05 1.208000000000000089e-03 -1.925000000000000062e-03 6.000000000000000152e-06 -2.027000000000000156e-03 2.291000000000000068e-03 5.700000000000000314e-05 -2.001000000000000174e-03 2.314000000000000085e-03 -8.299999999999999815e-05 -3.899999999999999929e-05 -6.099999999999999737e-04 2.130000000000000003e-04 1.038000000000000077e-03 -1.984000000000000086e-03 3.000000000000000076e-06 -2.599999999999999772e-04 -5.190000000000000386e-04 1.659999999999999963e-04 9.489999999999999738e-04 -1.959999999999999937e-03 -7.399999999999999623e-05 -1.856000000000000011e-03 2.235000000000000007e-03 -7.499999999999999343e-05 -2.036000000000000049e-03 2.477000000000000035e-03 -6.999999999999999895e-06 -1.600000000000000131e-04 -6.809999999999999647e-04 -1.569999999999999944e-04 1.146000000000000100e-03 -2.005999999999999971e-03 -7.100000000000000462e-05 1.699999999999999987e-05 -3.860000000000000041e-04 2.110000000000000059e-04 1.410000000000000012e-03 -1.621999999999999961e-03 1.200000000000000030e-05 -1.436999999999999909e-03 2.243999999999999901e-03 -2.779999999999999811e-04 -1.574000000000000095e-03 2.186000000000000009e-03 1.500000000000000038e-05 2.919999999999999961e-04 -5.060000000000000478e-04 -2.500000000000000120e-05 1.474000000000000050e-03 -1.696999999999999941e-03 1.000000000000000048e-04 -1.399999999999999877e-04 -6.549999999999999833e-04 3.399999999999999973e-05 1.655000000000000004e-03 -1.619999999999999912e-03 -3.000000000000000076e-06 -1.502000000000000080e-03 1.819000000000000087e-03 2.220000000000000022e-04 -1.678999999999999937e-03 2.145999999999999904e-03 5.700000000000000314e-05 2.439999999999999949e-04 -5.349999999999999938e-04 -6.000000000000000152e-06 1.382999999999999898e-03 -2.183000000000000045e-03 -8.299999999999999815e-05 1.540000000000000028e-04 -4.979999999999999618e-04 1.200000000000000030e-05 1.577000000000000060e-03 -1.569999999999999998e-03 -1.949999999999999965e-04 -1.458000000000000095e-03 1.946999999999999946e-03 -1.499999999999999869e-04 -1.556000000000000091e-03 1.807000000000000012e-03 -8.500000000000000611e-05 2.680000000000000090e-04 -4.609999999999999840e-04 2.900000000000000017e-04 1.329000000000000103e-03 -1.946999999999999946e-03 -1.000000000000000048e-04 3.789999999999999966e-04 -6.729999999999999871e-04 -4.300000000000000165e-05 1.389000000000000044e-03 -2.281000000000000041e-03 3.199999999999999855e-05 -1.497999999999999983e-03 2.253999999999999927e-03 -1.499999999999999869e-04 -1.525000000000000097e-03 2.144000000000000072e-03 1.200000000000000030e-04 1.769999999999999926e-04 -7.240000000000000342e-04 1.579999999999999916e-04 1.162999999999999971e-03 -1.832999999999999994e-03 1.920000000000000049e-04 2.480000000000000108e-04 -6.440000000000000412e-04 4.299999999999999894e-04 1.371999999999999956e-03 -1.915999999999999951e-03 -2.539999999999999940e-04 -1.734000000000000081e-03 2.298000000000000129e-03 7.799999999999999859e-05 -1.472999999999999917e-03 2.410999999999999949e-03 -7.100000000000000462e-05 0.000000000000000000e+00 -5.590000000000000351e-04 5.300000000000000078e-05 1.433000000000000029e-03 -1.472999999999999917e-03 1.999999999999999909e-06 3.040000000000000167e-04 -7.349999999999999763e-04 -2.229999999999999994e-04 1.449999999999999900e-03 -1.820000000000000003e-03 -2.000000000000000164e-05 -1.892000000000000019e-03 2.236999999999999839e-03 -7.600000000000000418e-05 -1.663999999999999898e-03 1.955999999999999839e-03 -6.499999999999999431e-05 8.100000000000000375e-05 -6.290000000000000018e-04 -5.800000000000000034e-05 1.252999999999999991e-03 -1.685999999999999999e-03 -9.100000000000000287e-05 1.110000000000000011e-04 -3.499999999999999693e-05 -1.879999999999999890e-04 8.880000000000000089e-04 -2.536000000000000060e-03 -6.099999999999999872e-05 -2.027000000000000156e-03 2.269999999999999882e-03 -1.359999999999999989e-04 -1.518000000000000035e-03 2.723999999999999859e-03 -5.599999999999999916e-05 1.800000000000000046e-05 3.499999999999999693e-05 6.499999999999999431e-05 1.351999999999999903e-03 -2.282000000000000174e-03 1.019999999999999992e-04 3.119999999999999944e-04 -1.250000000000000026e-04 3.049999999999999868e-04 9.859999999999998974e-04 -2.331000000000000173e-03 -9.000000000000000567e-05 -2.295999999999999864e-03 2.478000000000000168e-03 6.499999999999999431e-05 -1.636000000000000084e-03 2.471000000000000106e-03 -8.100000000000000375e-05 -7.299999999999999903e-05 5.599999999999999916e-05 9.500000000000000523e-05 1.464999999999999939e-03 -1.930999999999999991e-03 -3.999999999999999819e-06 -1.999999999999999909e-06 -3.179999999999999776e-04 1.169999999999999979e-04 1.015999999999999976e-03 -2.220999999999999884e-03 -3.300000000000000253e-05 -1.965999999999999866e-03 2.514000000000000175e-03 -1.279999999999999942e-04 -1.628000000000000107e-03 2.243999999999999901e-03 6.000000000000000152e-05 -6.600000000000000506e-05 6.899999999999999667e-05 -7.700000000000000139e-05 1.356000000000000000e-03 -1.944999999999999897e-03 2.699999999999999899e-05 -1.330000000000000073e-04 2.239999999999999966e-04 4.600000000000000004e-05 1.891000000000000103e-03 -3.023000000000000079e-03 -1.029999999999999964e-04 -1.637000000000000000e-03 2.142999999999999940e-03 -1.699999999999999987e-05 -1.946999999999999946e-03 2.504999999999999848e-03 -6.600000000000000506e-05 2.880000000000000073e-04 4.090000000000000211e-04 6.999999999999999895e-06 1.150999999999999896e-03 -3.049000000000000061e-03 6.700000000000000226e-05 1.160000000000000007e-04 4.060000000000000024e-04 1.219999999999999974e-04 1.812000000000000026e-03 -2.893000000000000172e-03 9.000000000000000228e-06 -1.374000000000000004e-03 2.357999999999999853e-03 -1.849999999999999973e-04 -1.977000000000000025e-03 2.442000000000000160e-03 -1.679999999999999907e-04 5.019999999999999506e-04 5.310000000000000050e-04 -5.700000000000000314e-05 1.286000000000000034e-03 -2.794000000000000043e-03 -1.230000000000000082e-04 -8.799999999999999771e-05 3.950000000000000061e-04 -5.500000000000000196e-05 1.926999999999999894e-03 -2.905000000000000030e-03 -4.600000000000000004e-05 -1.368999999999999991e-03 2.057999999999999934e-03 6.299999999999999990e-05 -1.951000000000000043e-03 2.645999999999999915e-03 3.899999999999999929e-05 4.040000000000000080e-04 2.640000000000000202e-04 6.999999999999999895e-06 1.167000000000000069e-03 -3.089999999999999865e-03 -8.200000000000000095e-05 3.060000000000000111e-04 6.799999999999999946e-05 -5.700000000000000314e-05 1.766999999999999908e-03 -2.001000000000000174e-03 1.279999999999999942e-04 -1.613999999999999983e-03 2.789999999999999945e-03 -1.019999999999999992e-04 -1.217999999999999899e-03 2.383999999999999835e-03 5.099999999999999960e-05 3.460000000000000076e-04 -7.200000000000000182e-05 3.600000000000000091e-05 1.657999999999999969e-03 -2.341999999999999898e-03 5.399999999999999798e-05 3.980000000000000248e-04 2.000000000000000096e-04 -2.199999999999999943e-05 1.758999999999999930e-03 -2.321000000000000146e-03 -5.399999999999999798e-05 -1.608000000000000054e-03 2.419999999999999842e-03 1.179999999999999951e-04 -1.252999999999999991e-03 2.286999999999999970e-03 -3.800000000000000209e-05 5.050000000000000235e-04 -1.010000000000000020e-04 -9.299999999999999727e-05 1.688000000000000047e-03 -2.775999999999999822e-03 1.200000000000000030e-05 2.610000000000000015e-04 6.399999999999999710e-05 1.869999999999999917e-04 1.848999999999999949e-03 -1.992999999999999980e-03 -3.029999999999999924e-04 -1.523999999999999964e-03 2.900999999999999933e-03 -2.010000000000000068e-04 -1.191000000000000001e-03 2.115000000000000126e-03 -9.999999999999999547e-07 2.500000000000000052e-04 -1.499999999999999869e-04 1.029999999999999964e-04 1.590000000000000050e-03 -2.364999999999999915e-03 -8.299999999999999815e-05 -1.129999999999999955e-04 -3.100000000000000135e-05 7.399999999999999623e-05 1.466999999999999988e-03 -1.343999999999999926e-03 1.190000000000000058e-04 -1.972999999999999927e-03 2.635999999999999888e-03 -2.919999999999999961e-04 -1.699999999999999905e-03 2.213999999999999822e-03 5.700000000000000314e-05 -2.100000000000000087e-04 -6.099999999999999872e-05 4.800000000000000122e-05 1.149000000000000065e-03 -1.033999999999999980e-03 7.200000000000000182e-05 -5.300000000000000078e-05 -7.100000000000000462e-05 -3.600000000000000091e-05 1.348000000000000023e-03 -1.141000000000000087e-03 -4.899999999999999842e-05 -1.889999999999999970e-03 2.445000000000000125e-03 1.620000000000000075e-04 -1.431999999999999896e-03 2.390000000000000197e-03 8.899999999999999491e-05 -7.600000000000000418e-05 -2.910000000000000260e-04 -2.210000000000000050e-04 1.294999999999999927e-03 -1.306000000000000086e-03 7.399999999999999623e-05 -6.999999999999999895e-06 -2.039999999999999984e-04 5.300000000000000078e-05 1.487000000000000040e-03 -1.131000000000000061e-03 -2.369999999999999874e-04 -1.907000000000000058e-03 2.732000000000000053e-03 -1.310000000000000129e-04 -1.477000000000000014e-03 1.968999999999999830e-03 6.000000000000000152e-06 -4.600000000000000004e-05 -1.100000000000000039e-04 2.069999999999999900e-04 1.244000000000000097e-03 -1.330999999999999935e-03 -8.700000000000000051e-05 -2.339999999999999958e-04 -8.899999999999999491e-05 -1.769999999999999926e-04 1.484999999999999992e-03 -9.790000000000000525e-04 7.200000000000000182e-05 -1.660000000000000017e-03 3.445999999999999844e-03 4.800000000000000122e-05 -1.969999999999999963e-03 3.445000000000000145e-03 -2.000000000000000164e-05 9.799999999999999684e-05 -1.999999999999999909e-06 1.350000000000000017e-04 1.330999999999999935e-03 -1.010999999999999963e-03 1.340000000000000045e-04 -6.099999999999999872e-05 -1.479999999999999925e-04 3.159999999999999832e-04 1.340000000000000045e-03 -1.033999999999999980e-03 -1.720000000000000066e-04 -1.786000000000000044e-03 3.487000000000000082e-03 2.750000000000000166e-04 -1.969999999999999963e-03 3.333000000000000025e-03 -2.599999999999999840e-05 -6.399999999999999710e-05 -2.000000000000000096e-04 6.399999999999999710e-05 1.260000000000000052e-03 -6.750000000000000357e-04 -4.600000000000000004e-05 -1.630000000000000047e-04 -1.359999999999999989e-04 3.000000000000000076e-05 1.631000000000000071e-03 -7.370000000000000249e-04 9.399999999999999448e-05 -1.712999999999999896e-03 3.514999999999999895e-03 -7.100000000000000462e-05 -2.030000000000000120e-03 3.168999999999999942e-03 -6.999999999999999387e-05 7.999999999999999638e-06 -3.269999999999999795e-04 -6.000000000000000152e-06 1.338999999999999913e-03 -9.489999999999999738e-04 -2.199999999999999943e-05 8.700000000000000051e-05 5.000000000000000409e-06 -6.299999999999999990e-05 1.353000000000000036e-03 -1.018000000000000025e-03 -7.299999999999999903e-05 -1.319000000000000077e-03 2.033000000000000085e-03 -9.000000000000000228e-06 -1.162999999999999971e-03 2.815999999999999927e-03 1.399999999999999979e-05 1.010000000000000020e-04 1.090000000000000067e-04 -5.899999999999999754e-05 1.516999999999999902e-03 -1.103999999999999947e-03 -1.299999999999999920e-05 1.649999999999999991e-04 8.799999999999999771e-05 9.500000000000000523e-05 1.386999999999999995e-03 -1.129999999999999928e-03 1.200000000000000030e-04 -1.324000000000000090e-03 2.344999999999999862e-03 -9.899999999999999404e-05 -1.435000000000000078e-03 2.834999999999999847e-03 -1.039999999999999936e-04 2.320000000000000014e-04 4.600000000000000004e-05 1.600000000000000131e-04 1.330999999999999935e-03 -9.150000000000000147e-04 -2.199999999999999943e-05 -1.060000000000000016e-04 -1.039999999999999936e-04 -5.500000000000000196e-05 1.402000000000000034e-03 -1.103999999999999947e-03 -4.300000000000000165e-05 -1.062999999999999926e-03 2.077999999999999986e-03 -2.199999999999999943e-05 -1.368999999999999991e-03 3.059999999999999786e-03 8.799999999999999771e-05 1.930000000000000021e-04 -4.199999999999999768e-05 -2.300000000000000002e-05 1.345000000000000058e-03 -8.880000000000000089e-04