-4.653768263765559823e+02 -2.435089444440645835e-03 -2.435089444440645835e-03 -2.435089444440645835e-03 2.582427248111857239e+02 4.363863419263624621e+01 -2.435089444440645835e-03 4.363863419263624621e+01 1.721911315294191809e+02
-4.652180625697196774e+02 -1.364052583009809916e-01 -1.844429318867646106e-01 -1.364052583009809916e-01 2.583719052999780956e+02 4.355390917973463161e+01 -1.844429318867646106e-01 4.355390917973463161e+01 1.723152607169672024e+02
-4.653748340306468663e+02 -2.827118720289437115e-01 -3.761911321068512337e-01 -2.827118720289437115e-01 2.581518818876138539e+02 4.339671509997821630e+01 -3.761911321068512337e-01 4.339671509997821630e+01 1.720642653818344456e+02
-4.644777551291973623e+02 -4.244703021664636422e-01 -5.643571346318102533e-01 -4.244703021664636422e-01 2.589873590635307892e+02 4.321223191867915148e+01 -5.643571346318102533e-01 4.321223191867915148e+01 1.729336526876182063e+02
-4.636912011139369270e+02 -5.659268617116975930e-01 -7.481158265093931226e-01 -5.659268617116975930e-01 2.596914621576848958e+02 4.291742509825260754e+01 -7.481158265093931226e-01 4.291742509825260754e+01 1.735620667619330959e+02
