2.064599999999999991e+00 2.712759999999999838e+00 2.639549999999999841e+00 1.216520000000000046e+00 7.194000000000000394e-01 2.210379999999999789e+00 2.263630000000000031e+00 2.911649999999999849e+00 2.210360000000000102e+00 1.374470000000000081e+00 4.905030000000000001e+00 2.639530000000000154e+00 3.310750000000000082e+00 5.103900000000000325e+00 2.210379999999999789e+00 1.573509999999999964e+00 5.103889999999999816e+00 2.210379999999999789e+00 3.111720000000000041e+00 4.905020000000000380e+00 2.639540000000000219e+00 2.953759999999999941e+00 7.194199999999999484e-01 2.210389999999999855e+00 1.017490000000000006e+00 5.205400000000000027e-01 2.639540000000000219e+00 2.754710000000000214e+00 5.205400000000000027e-01 2.639530000000000154e+00 2.527390000000000025e+00 1.230660000000000087e+00 7.079349999999999810e+00 3.574510000000000076e+00 3.422909999999999897e+00 7.079349999999999810e+00 2.884399999999999853e+00 5.615149999999999864e+00 7.079349999999999810e+00 4.621629999999999683e+00 5.615160000000000373e+00 7.079369999999999941e+00 4.264639999999999986e+00 1.230660000000000087e+00 7.079360000000000319e+00 3.375480000000000036e+00 3.224019999999999886e+00 7.508519999999999861e+00 2.685360000000000191e+00 5.416269999999999918e+00 7.508519999999999861e+00 4.422600000000000087e+00 5.416280000000000427e+00 7.508519999999999861e+00 2.328359999999999985e+00 1.031789999999999985e+00 7.508519999999999861e+00 4.065599999999999881e+00 1.031789999999999985e+00 7.508510000000000240e+00 4.686359999999999637e+00 3.735289999999999999e+00 1.237749999999999950e+01 3.838280000000000136e+00 1.741919999999999913e+00 1.194833000000000034e+01 4.885379999999999612e+00 3.934159999999999879e+00 1.194833000000000034e+01 3.996230000000000171e+00 5.927529999999999966e+00 1.237748999999999988e+01 4.195260000000000211e+00 6.126400000000000290e+00 1.194834999999999958e+01 5.733469999999999622e+00 5.927539999999999587e+00 1.237749999999999950e+01 5.932509999999999728e+00 6.126400000000000290e+00 1.194833999999999996e+01 5.575520000000000032e+00 1.741929999999999978e+00 1.194833000000000034e+01 3.639240000000000030e+00 1.543060000000000098e+00 1.237748999999999988e+01 5.376479999999999926e+00 1.543050000000000033e+00 1.237749999999999950e+01 3.667730000000000157e+00 9.488360000000000127e+00 2.210379999999999789e+00 2.620620000000000172e+00 7.296129999999999782e+00 2.210370000000000168e+00 1.731470000000000065e+00 9.289500000000000313e+00 2.639530000000000154e+00 2.778589999999999893e+00 1.148173000000000066e+01 2.639540000000000219e+00 1.930509999999999948e+00 9.488369999999999749e+00 2.210379999999999789e+00 3.468700000000000117e+00 9.289490000000000691e+00 2.639530000000000154e+00 2.977619999999999933e+00 1.168060999999999972e+01 2.210370000000000168e+00 2.421590000000000131e+00 7.097249999999999837e+00 2.639540000000000219e+00 3.931500000000000217e+00 7.807389999999999830e+00 7.079340000000000188e+00 3.241369999999999862e+00 9.999620000000000175e+00 7.079349999999999810e+00 4.288499999999999979e+00 1.219186999999999976e+01 7.079349999999999810e+00 4.978620000000000267e+00 9.999639999999999418e+00 7.079360000000000319e+00 3.042339999999999822e+00 9.800760000000000360e+00 7.508519999999999861e+00 4.089470000000000383e+00 1.199299000000000071e+01 7.508530000000000371e+00 4.779589999999999783e+00 9.800750000000000739e+00 7.508510000000000240e+00 3.732479999999999798e+00 7.608509999999999884e+00 7.508530000000000371e+00 5.242390000000000327e+00 8.318649999999999878e+00 1.194832000000000072e+01 4.353220000000000312e+00 1.031201000000000079e+01 1.237749999999999950e+01 5.400339999999999918e+00 1.250423999999999936e+01 1.237749999999999950e+01 4.552270000000000039e+00 1.051088000000000022e+01 1.194834999999999958e+01 6.090460000000000207e+00 1.031201000000000079e+01 1.237748000000000026e+01 5.599370000000000402e+00 1.270312999999999981e+01 1.194832000000000072e+01 6.289489999999999803e+00 1.051088000000000022e+01 1.194834999999999958e+01 5.043339999999999712e+00 8.119759999999999422e+00 1.237749999999999950e+01 3.801829999999999821e+00 2.712779999999999969e+00 2.639549999999999841e+00 5.738100000000000200e+00 2.911659999999999915e+00 2.210360000000000102e+00 5.539069999999999716e+00 2.712769999999999904e+00 2.639540000000000219e+00 4.000880000000000436e+00 2.911639999999999784e+00 2.210360000000000102e+00 4.691010000000000346e+00 7.194000000000000394e-01 2.210370000000000168e+00 4.848950000000000315e+00 4.905030000000000001e+00 2.639530000000000154e+00 5.047990000000000421e+00 5.103889999999999816e+00 2.210379999999999789e+00 4.491959999999999731e+00 5.205400000000000027e-01 2.639530000000000154e+00 7.048989999999999867e+00 3.422919999999999963e+00 7.079340000000000188e+00 5.311759999999999593e+00 3.422909999999999897e+00 7.079340000000000188e+00 6.001879999999999882e+00 1.230679999999999996e+00 7.079360000000000319e+00 6.358859999999999957e+00 5.615160000000000373e+00 7.079360000000000319e+00 5.112720000000000375e+00 3.224029999999999951e+00 7.508530000000000371e+00 6.849960000000000271e+00 3.224019999999999886e+00 7.508519999999999861e+00 6.159819999999999851e+00 5.416280000000000427e+00 7.508519999999999861e+00 5.802830000000000155e+00 1.031800000000000050e+00 7.508510000000000240e+00 6.423589999999999911e+00 3.735279999999999934e+00 1.237749999999999950e+01 8.359870000000000800e+00 3.934180000000000010e+00 1.194833000000000034e+01 8.160840000000000316e+00 3.735269999999999868e+00 1.237749999999999950e+01 6.622630000000000017e+00 3.934180000000000010e+00 1.194833000000000034e+01 7.312759999999999927e+00 1.741919999999999913e+00 1.194833999999999996e+01 7.470710000000000406e+00 5.927529999999999966e+00 1.237749999999999950e+01 7.669749999999999623e+00 6.126409999999999911e+00 1.194833999999999996e+01 7.113719999999999821e+00 1.543060000000000098e+00 1.237749999999999950e+01 6.095089999999999897e+00 7.296129999999999782e+00 2.210360000000000102e+00 4.357850000000000001e+00 7.296129999999999782e+00 2.210370000000000168e+00 4.515819999999999723e+00 1.148173000000000066e+01 2.639530000000000154e+00 6.452090000000000103e+00 1.168060000000000009e+01 2.210360000000000102e+00 5.205940000000000012e+00 9.289490000000000691e+00 2.639540000000000219e+00 6.253049999999999997e+00 1.148171999999999926e+01 2.639540000000000219e+00 4.714850000000000207e+00 1.168060000000000009e+01 2.210360000000000102e+00 5.404980000000000118e+00 9.488369999999999749e+00 2.210370000000000168e+00 4.158830000000000027e+00 7.097249999999999837e+00 2.639540000000000219e+00 5.896069999999999922e+00 7.097260000000000346e+00 2.639540000000000219e+00 5.668750000000000178e+00 7.807380000000000209e+00 7.079349999999999810e+00 7.762970000000000148e+00 1.219186999999999976e+01 7.079340000000000188e+00 6.025719999999999743e+00 1.219186000000000014e+01 7.079349999999999810e+00 6.715860000000000163e+00 9.999629999999999797e+00 7.079349999999999810e+00 7.405979999999999563e+00 7.807389999999999830e+00 7.079349999999999810e+00 5.826690000000000147e+00 1.199297999999999931e+01 7.508530000000000371e+00 6.516820000000000057e+00 9.800750000000000739e+00 7.508510000000000240e+00 7.563930000000000042e+00 1.199297999999999931e+01 7.508530000000000371e+00 5.469710000000000072e+00 7.608509999999999884e+00 7.508530000000000371e+00 7.206940000000000346e+00 7.608520000000000394e+00 7.508530000000000371e+00 6.979610000000000092e+00 8.318649999999999878e+00 1.194832000000000072e+01 7.137570000000000192e+00 1.250422999999999973e+01 1.237750999999999912e+01 9.073850000000000193e+00 1.270312999999999981e+01 1.194832000000000072e+01 7.827700000000000102e+00 1.031201000000000079e+01 1.237749999999999950e+01 8.874819999999999709e+00 1.250425000000000075e+01 1.237749999999999950e+01 7.336610000000000298e+00 1.270312000000000019e+01 1.194833999999999996e+01 8.026730000000000587e+00 1.051088000000000022e+01 1.194834999999999958e+01 8.716860000000000497e+00 8.318649999999999878e+00 1.194833000000000034e+01 6.780590000000000117e+00 8.119770000000000820e+00 1.237750999999999912e+01 8.517820000000000391e+00 8.119759999999999422e+00 1.237750999999999912e+01 2.318880000000000052e+00 4.428519999999999790e+00 6.513099999999999445e-01 7.719200000000000506e-01 1.716089999999999893e+00 2.424920000000000186e+00 1.271749999999999936e+00 2.236279999999999824e+00 6.513400000000000301e-01 1.819059999999999899e+00 3.908339999999999925e+00 2.424990000000000201e+00 2.509139999999999926e+00 1.716110000000000024e+00 2.424920000000000186e+00 2.866150000000000198e+00 6.100590000000000401e+00 2.424929999999999808e+00 1.128900000000000015e+00 6.100579999999999892e+00 2.424920000000000186e+00 5.816400000000000459e-01 4.428519999999999790e+00 6.513200000000000101e-01 1.628740000000000077e+00 6.620770000000000266e+00 6.513299999999999645e-01 3.629760000000000097e+00 4.939779999999999838e+00 5.520290000000000141e+00 2.009389999999999787e+00 1.195869999999999989e+00 4.198660000000000281e+00 3.056500000000000217e+00 3.388100000000000112e+00 4.198620000000000019e+00 2.366359999999999797e+00 5.580350000000000144e+00 4.198669999999999902e+00 2.082790000000000141e+00 2.227360000000000007e+00 7.293890000000000207e+00 2.582629999999999981e+00 2.747539999999999871e+00 5.520319999999999894e+00 4.103600000000000136e+00 5.580339999999999634e+00 4.198660000000000281e+00 3.129929999999999879e+00 4.419590000000000352e+00 7.293980000000000352e+00 3.820030000000000037e+00 2.227360000000000007e+00 7.293899999999999828e+00 3.746609999999999996e+00 1.195869999999999989e+00 4.198669999999999902e+00 2.439789999999999903e+00 6.611830000000000318e+00 7.293899999999999828e+00 1.892519999999999980e+00 4.939779999999999838e+00 5.520299999999999763e+00 4.177019999999999733e+00 6.611849999999999561e+00 7.293890000000000207e+00 2.939620000000000122e+00 7.132030000000000314e+00 5.520310000000000272e+00 5.414480000000000182e+00 6.091599999999999682e+00 9.067640000000000811e+00 4.940640000000000143e+00 5.451039999999999885e+00 1.038927999999999940e+01 3.320260000000000211e+00 1.707119999999999971e+00 9.067650000000000432e+00 4.367379999999999818e+00 3.899360000000000159e+00 9.067600000000000549e+00 3.677259999999999973e+00 6.091599999999999682e+00 9.067650000000000432e+00 3.893520000000000092e+00 3.258799999999999919e+00 1.038929000000000080e+01 5.057500000000000107e+00 1.707130000000000036e+00 9.067640000000000811e+00 3.203399999999999803e+00 5.451030000000000264e+00 1.038927999999999940e+01 4.250499999999999723e+00 7.643279999999999852e+00 1.038930000000000042e+01 5.487910000000000288e+00 7.123099999999999987e+00 1.216289000000000087e+01 6.725369999999999848e+00 6.602859999999999729e+00 1.393661999999999956e+01 3.393679999999999808e+00 2.738609999999999989e+00 1.216289000000000087e+01 4.440800000000000303e+00 4.930839999999999890e+00 1.216295999999999999e+01 4.631140000000000256e+00 2.218370000000000175e+00 1.393661999999999956e+01 5.130910000000000082e+00 2.738630000000000120e+00 1.216287999999999947e+01 5.678239999999999732e+00 4.410619999999999763e+00 1.393659000000000070e+01 3.750659999999999883e+00 7.123090000000000366e+00 1.216289000000000087e+01 4.988129999999999953e+00 6.602859999999999729e+00 1.393661999999999956e+01 6.368369999999999642e+00 2.218379999999999797e+00 1.393662999999999919e+01 2.533030000000000115e+00 1.267728999999999928e+01 2.424980000000000135e+00 2.675860000000000127e+00 8.813010000000000232e+00 6.513099999999999445e-01 3.223120000000000207e+00 1.048506000000000071e+01 2.424929999999999808e+00 9.386200000000000099e-01 8.813010000000000232e+00 6.513200000000000101e-01 2.176039999999999974e+00 8.292820000000000746e+00 2.424990000000000201e+00 1.485889999999999933e+00 1.048506000000000071e+01 2.424920000000000186e+00 1.985719999999999930e+00 1.100525000000000020e+01 6.513299999999999645e-01 1.295600000000000085e+00 1.319748000000000054e+01 6.513099999999999445e-01 3.032859999999999889e+00 1.319748000000000054e+01 6.513099999999999445e-01 3.986740000000000173e+00 9.324249999999999261e+00 5.520299999999999763e+00 4.534019999999999939e+00 1.099630999999999936e+01 7.293910000000000338e+00 3.413489999999999913e+00 7.772579999999999600e+00 4.198629999999999640e+00 3.843900000000000095e+00 1.318853999999999971e+01 7.293980000000000352e+00 2.723360000000000003e+00 9.964819999999999567e+00 4.198669999999999902e+00 3.770469999999999988e+00 1.215705999999999953e+01 4.198629999999999640e+00 4.460600000000000342e+00 9.964819999999999567e+00 4.198660000000000281e+00 3.486909999999999954e+00 8.804059999999999775e+00 7.293969999999999843e+00 2.796769999999999978e+00 1.099633000000000038e+01 7.293899999999999828e+00 3.296600000000000197e+00 1.151650000000000063e+01 5.520310000000000272e+00 2.249499999999999833e+00 9.324249999999999261e+00 5.520299999999999763e+00 2.606500000000000039e+00 1.370872999999999919e+01 5.520299999999999763e+00 4.343720000000000248e+00 1.370872999999999919e+01 5.520290000000000141e+00 5.771469999999999878e+00 1.047607999999999961e+01 9.067640000000000811e+00 4.607490000000000308e+00 1.202776000000000067e+01 1.038929000000000080e+01 5.297629999999999839e+00 9.835520000000000707e+00 1.038927999999999940e+01 4.724359999999999893e+00 8.283830000000000027e+00 9.067600000000000549e+00 3.560389999999999944e+00 9.835520000000000707e+00 1.038926999999999978e+01 4.034239999999999604e+00 1.047608999999999924e+01 9.067640000000000811e+00 5.081360000000000099e+00 1.266831999999999958e+01 9.067600000000000549e+00 3.917370000000000019e+00 1.421998999999999924e+01 1.038926999999999978e+01 5.654609999999999914e+00 1.421998999999999924e+01 1.038926999999999978e+01 7.082360000000000433e+00 1.098733999999999966e+01 1.393662999999999919e+01 5.154779999999999696e+00 1.369980999999999938e+01 1.216295000000000037e+01 6.392229999999999634e+00 1.317957999999999963e+01 1.393657999999999930e+01 5.844890000000000363e+00 1.150758000000000081e+01 1.216287999999999947e+01 4.797789999999999999e+00 9.315319999999999823e+00 1.216294000000000075e+01 6.035249999999999559e+00 8.795109999999999317e+00 1.393657999999999930e+01 4.107649999999999579e+00 1.150758000000000081e+01 1.216289000000000087e+01 5.345110000000000028e+00 1.098733999999999966e+01 1.393662999999999919e+01 4.603390000000000093e+00 6.100579999999999892e+00 2.424920000000000186e+00 4.056110000000000326e+00 4.428519999999999790e+00 6.513200000000000101e-01 5.293520000000000003e+00 3.908329999999999860e+00 2.424990000000000201e+00 3.008989999999999831e+00 2.236299999999999955e+00 6.513400000000000301e-01 3.556290000000000173e+00 3.908339999999999925e+00 2.424980000000000135e+00 4.246380000000000265e+00 1.716110000000000024e+00 2.424929999999999808e+00 4.746220000000000105e+00 2.236289999999999889e+00 6.513200000000000101e-01 3.365979999999999972e+00 6.620770000000000266e+00 6.513400000000000301e-01 5.103200000000000180e+00 6.620759999999999756e+00 6.513299999999999645e-01 5.366999999999999993e+00 4.939770000000000216e+00 5.520299999999999763e+00 5.914259999999999629e+00 6.611849999999999561e+00 7.293910000000000338e+00 4.793739999999999668e+00 3.388110000000000177e+00 4.198620000000000019e+00 5.483859999999999957e+00 1.195859999999999923e+00 4.198669999999999902e+00 6.604400000000000048e+00 4.419579999999999842e+00 7.293980000000000352e+00 5.840849999999999653e+00 5.580339999999999634e+00 4.198660000000000281e+00 4.319860000000000255e+00 2.747539999999999871e+00 5.520310000000000272e+00 4.867160000000000153e+00 4.419590000000000352e+00 7.293980000000000352e+00 5.557269999999999932e+00 2.227360000000000007e+00 7.293899999999999828e+00 6.057089999999999641e+00 2.747560000000000002e+00 5.520310000000000272e+00 6.530960000000000321e+00 3.388100000000000112e+00 4.198629999999999640e+00 4.676859999999999573e+00 7.132030000000000314e+00 5.520310000000000272e+00 6.414100000000000357e+00 7.132030000000000314e+00 5.520299999999999763e+00 7.841840000000000366e+00 3.899360000000000159e+00 9.067600000000000549e+00 7.367980000000000196e+00 3.258799999999999919e+00 1.038929000000000080e+01 6.677870000000000417e+00 5.451039999999999885e+00 1.038927999999999940e+01 6.104599999999999582e+00 3.899360000000000159e+00 9.067600000000000549e+00 6.794740000000000002e+00 1.707109999999999905e+00 9.067650000000000432e+00 5.630740000000000300e+00 3.258809999999999985e+00 1.038929000000000080e+01 7.151729999999999698e+00 6.091599999999999682e+00 9.067640000000000811e+00 5.987739999999999618e+00 7.643290000000000362e+00 1.038930000000000042e+01 7.724980000000000402e+00 7.643279999999999852e+00 1.038929000000000080e+01 9.152720000000000411e+00 4.410630000000000273e+00 1.393657999999999930e+01 8.462609999999999744e+00 6.602859999999999729e+00 1.393661999999999956e+01 8.105610000000000426e+00 2.218379999999999797e+00 1.393661999999999956e+01 6.178040000000000198e+00 4.930850000000000399e+00 1.216295000000000037e+01 7.225130000000000052e+00 7.123090000000000366e+00 1.216287999999999947e+01 6.868149999999999977e+00 2.738630000000000120e+00 1.216289000000000087e+01 7.415490000000000137e+00 4.410630000000000273e+00 1.393657999999999930e+01 7.915280000000000094e+00 4.930839999999999890e+00 1.216294000000000075e+01 6.007500000000000284e+00 1.267727999999999966e+01 2.424999999999999822e+00 3.913279999999999870e+00 8.292799999999999727e+00 2.424990000000000201e+00 4.413100000000000023e+00 8.812989999999999213e+00 6.513200000000000101e-01 5.650509999999999700e+00 8.292809999999999349e+00 2.424980000000000135e+00 3.722960000000000047e+00 1.100525000000000020e+01 6.513400000000000301e-01 4.270270000000000010e+00 1.267728999999999928e+01 2.424990000000000201e+00 4.960370000000000168e+00 1.048507000000000033e+01 2.424920000000000186e+00 5.460200000000000387e+00 1.100525999999999982e+01 6.513200000000000101e-01 4.770100000000000229e+00 1.319748000000000054e+01 6.513200000000000101e-01 5.150730000000000253e+00 7.772579999999999600e+00 4.198629999999999640e+00 5.507719999999999949e+00 1.215706999999999915e+01 4.198620000000000019e+00 6.197849999999999859e+00 9.964809999999999945e+00 4.198669999999999902e+00 7.244950000000000223e+00 1.215706999999999915e+01 4.198620000000000019e+00 5.224149999999999849e+00 8.804069999999999396e+00 7.293969999999999843e+00 6.887970000000000148e+00 7.772590000000000110e+00 4.198620000000000019e+00 6.961389999999999745e+00 8.804069999999999396e+00 7.293980000000000352e+00 5.033850000000000158e+00 1.151651000000000025e+01 5.520310000000000272e+00 5.581140000000000434e+00 1.318853999999999971e+01 7.293969999999999843e+00 6.271250000000000213e+00 1.099633000000000038e+01 7.293890000000000207e+00 6.771069999999999922e+00 1.151651000000000025e+01 5.520299999999999763e+00 5.723980000000000068e+00 9.324260000000000659e+00 5.520299999999999763e+00 7.318389999999999951e+00 1.318853999999999971e+01 7.293969999999999843e+00 6.080969999999999764e+00 1.370875000000000021e+01 5.520290000000000141e+00 8.555830000000000268e+00 1.266831999999999958e+01 9.067600000000000549e+00 6.461599999999999788e+00 8.283849999999999270e+00 9.067600000000000549e+00 7.034860000000000113e+00 9.835509999999999309e+00 1.038929000000000080e+01 6.818590000000000373e+00 1.266832999999999920e+01 9.067600000000000549e+00 7.508709999999999773e+00 1.047606999999999999e+01 9.067650000000000432e+00 8.198840000000000572e+00 8.283849999999999270e+00 9.067610000000000170e+00 8.081950000000000855e+00 1.202777000000000029e+01 1.038929000000000080e+01 6.344730000000000203e+00 1.202774999999999928e+01 1.038929000000000080e+01 7.391860000000000319e+00 1.421998999999999924e+01 1.038926999999999978e+01 9.866699999999999804e+00 1.317958999999999925e+01 1.393657999999999930e+01 6.535029999999999895e+00 9.315319999999999823e+00 1.216295999999999999e+01 7.772470000000000212e+00 8.795109999999999317e+00 1.393657999999999930e+01 8.272270000000000678e+00 9.315329999999999444e+00 1.216294000000000075e+01 6.892030000000000101e+00 1.369980999999999938e+01 1.216295000000000037e+01 7.582119999999999749e+00 1.150756999999999941e+01 1.216287999999999947e+01 8.129479999999999151e+00 1.317958999999999925e+01 1.393659000000000070e+01 8.629260000000000375e+00 1.369980999999999938e+01 1.216295999999999999e+01 8.819599999999999440e+00 1.098734999999999928e+01 1.393662999999999919e+01 9.509710000000000107e+00 8.795090000000000074e+00 1.393659000000000070e+01