9.926184844240000530e+03
7.649989653130000079e+03
5.068673017590000200e+03
4.311698851400000422e+03
4.034460807349999868e+03
3.879850644029999785e+03
3.767404943430000003e+03
3.675781714310000098e+03
3.597689816950000022e+03
3.529672113969999828e+03
