-2.443616020000000049e+02 -2.386061939999999879e+02 5.376017219999999952e+02 2.444014559999999960e+02 2.386380039999999951e+02 -5.376902939999999944e+02 2.443547460000000058e+02 2.386210580000000050e+02 -5.375984200000000328e+02 -2.444172140000000013e+02 -2.386457619999999906e+02 5.376899300000000039e+02 2.444047940000000096e+02 2.386551399999999887e+02 -5.376755759999999782e+02 2.444185500000000104e+02 2.386498389999999858e+02 -5.376915900000000192e+02 -2.444058170000000132e+02 -2.386477419999999938e+02 5.376748320000000376e+02 2.444277999999999906e+02 2.386559420000000102e+02 -5.376720960000000105e+02 -2.444024330000000020e+02 -2.386353269999999895e+02 5.376880479999999807e+02 -2.444270239999999887e+02 -2.386501149999999996e+02 5.376687650000000076e+02 2.443809029999999893e+02 2.386304460000000063e+02 -5.376481169999999565e+02 2.443630379999999889e+02 2.386404540000000054e+02 -5.376157240000000002e+02 2.443775970000000086e+02 2.386318109999999990e+02 -5.376312659999999823e+02 2.444020060000000001e+02 2.386488249999999880e+02 -5.376682210000000168e+02 2.444032430000000033e+02 2.386443549999999902e+02 -5.376756080000000111e+02 -2.443660529999999937e+02 -2.386328589999999963e+02 5.376166050000000496e+02 -2.443779209999999864e+02 -2.386234190000000126e+02 5.376280239999999822e+02 -2.444019940000000020e+02 -2.386407879999999864e+02 5.376669600000000173e+02 -2.443813619999999958e+02 -2.386219120000000089e+02 5.376459109999999555e+02 -2.444054449999999861e+02 -2.386348570000000109e+02 5.376728970000000345e+02 -2.443826829999999859e+02 -2.386308260000000132e+02 5.376717999999999620e+02 2.444046150000000068e+02 2.386255219999999895e+02 -5.376662400000000162e+02 2.443804829999999981e+02 2.386374849999999981e+02 -5.376694529999999759e+02 -2.444142249999999876e+02 -2.386535920000000033e+02 5.376825529999999844e+02 2.444165439999999876e+02 2.386577039999999954e+02 -5.376842090000000098e+02 -2.443941460000000063e+02 -2.386180300000000045e+02 5.376572710000000370e+02 2.443918610000000058e+02 2.386258430000000033e+02 -5.376580430000000206e+02 2.443753609999999981e+02 2.386221620000000030e+02 -5.376361500000000433e+02 -2.444039870000000008e+02 -2.386208080000000109e+02 5.376624769999999671e+02 -2.443776760000000081e+02 -2.386107639999999890e+02 5.376331089999999904e+02 2.444043529999999862e+02 2.386546590000000094e+02 -5.376829350000000431e+02 2.443611820000000137e+02 2.386266119999999944e+02 -5.376227629999999635e+02 -2.444025900000000036e+02 -2.386337000000000046e+02 5.376542299999999841e+02 -2.443873700000000042e+02 -2.386319169999999872e+02 5.376416390000000547e+02 2.444013799999999890e+02 2.386380249999999990e+02 -5.376527999999999565e+02 -2.444046720000000050e+02 -2.386526000000000067e+02 5.376844529999999622e+02 2.443862890000000050e+02 2.386421949999999867e+02 -5.376428859999999759e+02 -2.443654339999999934e+02 -2.386143720000000030e+02 5.376199729999999590e+02 2.443420380000000023e+02 2.386075879999999927e+02 -5.376202489999999443e+02 2.443903109999999970e+02 2.386206569999999942e+02 -5.376655779999999822e+02 2.443631919999999980e+02 2.386146510000000092e+02 -5.376232089999999744e+02 2.444043330000000083e+02 2.386592369999999903e+02 -5.376725310000000491e+02 -2.443895980000000066e+02 -2.386196129999999869e+02 5.376665819999999485e+02 -2.443642370000000028e+02 -2.386055829999999958e+02 5.376209959999999910e+02 -2.444061820000000012e+02 -2.386573930000000132e+02 5.376733339999999544e+02 -2.443422510000000045e+02 -2.386005499999999984e+02 5.376178999999999633e+02 2.443655770000000018e+02 2.386195749999999975e+02 -5.375973830000000362e+02 -2.444209189999999978e+02 -2.386332020000000114e+02 5.376732459999999492e+02 -2.443500139999999874e+02 -2.386169950000000028e+02 5.375901509999999917e+02 2.444175360000000126e+02 2.386425729999999987e+02 -5.376701639999999998e+02 -2.444215309999999874e+02 -2.386711149999999861e+02 5.377150619999999890e+02 2.443487389999999948e+02 2.386296649999999886e+02 -5.375923800000000483e+02 2.444188090000000102e+02 2.386764469999999960e+02 -5.377133280000000468e+02 -2.443675110000000075e+02 -2.386111510000000067e+02 5.375942390000000159e+02 -2.443683729999999912e+02 -2.385806509999999889e+02 5.375949000000000524e+02 2.443612840000000119e+02 2.386229199999999935e+02 -5.376110549999999648e+02 -2.443604520000000093e+02 -2.386243580000000009e+02 5.376115800000000036e+02 2.443631039999999928e+02 2.385922300000000007e+02 -5.375930980000000545e+02 2.444023300000000063e+02 2.386276929999999936e+02 -5.376675219999999626e+02 -2.444075290000000109e+02 -2.386286010000000033e+02 5.376782859999999573e+02 2.444081610000000069e+02 2.386335819999999899e+02 -5.376799439999999777e+02 -2.444041249999999934e+02 -2.386149550000000090e+02 5.376648040000000037e+02 2.443462859999999921e+02 2.386285279999999887e+02 -5.375938999999999623e+02 2.443483640000000037e+02 2.386109590000000082e+02 -5.375882900000000291e+02 2.444182800000000100e+02 2.386441430000000139e+02 -5.376551990000000387e+02 2.443927940000000092e+02 2.386305499999999995e+02 -5.376379040000000487e+02 -2.443526180000000068e+02 -2.386008899999999926e+02 5.375892770000000382e+02 -2.443474960000000067e+02 -2.386227350000000058e+02 5.375941299999999501e+02 -2.443904770000000042e+02 -2.386276159999999891e+02 5.376338029999999435e+02 -2.444171680000000038e+02 -2.386442319999999881e+02 5.376506620000000112e+02 -2.443618690000000129e+02 -2.386185159999999996e+02 5.375962210000000141e+02 2.443578290000000095e+02 2.386353540000000066e+02 -5.376031249999999773e+02 -2.443591649999999902e+02 -2.386305079999999919e+02 5.376051189999999451e+02 2.443579210000000046e+02 2.386273190000000000e+02 -5.375943099999999504e+02 2.443951869999999928e+02 2.386227890000000116e+02 -5.376602159999999913e+02 -2.443896100000000047e+02 -2.386244460000000061e+02 5.376460710000000063e+02 2.443916049999999984e+02 2.386301499999999862e+02 -5.376471759999999449e+02 -2.443980009999999936e+02 -2.386116550000000132e+02 5.376568959999999606e+02 2.443657660000000078e+02 2.386319100000000049e+02 -5.376547000000000480e+02 2.443605959999999868e+02 2.386287890000000118e+02 -5.376415709999999990e+02 -2.443805889999999863e+02 -2.386193140000000028e+02 5.376434850000000552e+02 2.443707990000000052e+02 2.386208799999999997e+02 -5.376096539999999777e+02 -2.443699609999999893e+02 -2.386195830000000058e+02 5.376232479999999896e+02 -2.443711769999999888e+02 -2.386086040000000139e+02 5.376073489999999993e+02 2.443751910000000009e+02 2.386380200000000116e+02 -5.376444300000000567e+02 2.443666479999999979e+02 2.386271900000000130e+02 -5.376206809999999905e+02 -2.443604410000000087e+02 -2.386255600000000072e+02 5.376388950000000477e+02 -2.443644439999999918e+02 -2.386288399999999967e+02 5.376511349999999538e+02 2.443717780000000062e+02 2.386139070000000117e+02 -5.376228089999999611e+02 2.443548049999999989e+02 2.386077640000000031e+02 -5.375833599999999706e+02 2.443515470000000107e+02 2.386119659999999953e+02 -5.376109159999999747e+02 2.443968999999999880e+02 2.386295780000000093e+02 -5.376464819999999918e+02 2.443754279999999994e+02 2.386128720000000101e+02 -5.376158470000000307e+02 -2.443523370000000057e+02 -2.386003910000000019e+02 5.376109109999999873e+02 -2.444002040000000022e+02 -2.386204840000000047e+02 5.376475830000000542e+02 -2.443558390000000031e+02 -2.385976560000000006e+02 5.375824119999999766e+02 -2.443750939999999900e+02 -2.386022079999999903e+02 5.376207409999999527e+02 -2.443733090000000061e+02 -2.386107749999999896e+02 5.376122269999999617e+02 2.443492410000000064e+02 2.386191369999999949e+02 -5.376097590000000537e+02 -2.443694859999999949e+02 -2.386179190000000006e+02 5.376056220000000394e+02 2.443509400000000085e+02 2.386190839999999866e+02 -5.376047089999999571e+02 -2.444003470000000107e+02 -2.386406369999999981e+02 5.376690640000000485e+02 -2.443543899999999951e+02 -2.386046379999999942e+02 5.376007070000000567e+02 2.443677700000000073e+02 2.386317339999999945e+02 -5.376063619999999901e+02 2.443993979999999908e+02 2.386466120000000046e+02 -5.376662420000000111e+02 2.443590299999999900e+02 2.386156850000000134e+02 -5.376007530000000543e+02 -2.443488250000000050e+02 -2.386139760000000081e+02 5.376061260000000175e+02 -2.443600790000000131e+02 -2.386083109999999863e+02 5.375981940000000350e+02 -2.336424000000000056e+00 -9.082414999999999239e+00 1.455504200000000026e+01 -4.788999999999999854e-03 -1.837000000000000091e-03 8.099999999999999561e-04 -2.335275000000000212e+00 -9.079840000000000799e+00 1.454777699999999996e+01 1.392999999999999924e-03 -8.530000000000000256e-04 4.590999999999999595e-03 3.269000000000000204e-03 -1.801399999999999876e-02 -4.000000000000000192e-04 -3.750000000000000078e-04 -1.483100000000000043e-02 -4.189999999999999931e-04 -1.077999999999999965e-03 -7.085000000000000152e-03 -1.613999999999999983e-03 -2.334957999999999867e+00 -9.082376000000000005e+00 1.455322600000000044e+01 -2.333323000000000036e+00 -9.078851999999999478e+00 1.454430200000000006e+01 -2.335917999999999939e+00 -9.085053999999999519e+00 1.455508700000000033e+01 2.333403000000000116e+00 9.084975000000000023e+00 -1.455586899999999950e+01 2.332089999999999996e+00 9.080192000000000263e+00 -1.454707200000000000e+01 2.336250000000000160e+00 9.083921999999999386e+00 -1.455910199999999932e+01 1.283000000000000069e-03 -1.578600000000000142e-02 -1.879000000000000028e-03 -2.333571000000000062e+00 -9.079332000000000846e+00 1.454427100000000017e+01 2.336082000000000214e+00 9.083871999999999503e+00 -1.455837900000000040e+01 1.992999999999999980e-03 -1.962999999999999901e-03 3.027000000000000177e-03 1.631000000000000071e-03 -1.864899999999999891e-02 -1.559000000000000056e-03 2.336774999999999824e+00 9.085829999999999629e+00 -1.455906200000000084e+01 -2.830000000000000050e-03 -7.522000000000000040e-03 -1.029999999999999964e-04 -2.335595999999999783e+00 -9.085058999999999330e+00 1.455474500000000049e+01 1.000000000000000048e-04 -1.596799999999999956e-02 -2.592000000000000120e-03 -2.334074000000000204e+00 -9.081848000000000809e+00 1.454701299999999975e+01 2.336948000000000025e+00 9.084896000000000527e+00 -1.456027399999999972e+01 -2.336850000000000094e+00 -9.085884000000000071e+00 1.455761299999999991e+01 2.335748999999999853e+00 9.085103999999999402e+00 -1.456024200000000057e+01 2.331449999999999800e+00 9.078986000000000445e+00 -1.454854899999999951e+01 2.334570999999999952e+00 9.084939000000000320e+00 -1.456058900000000023e+01 -2.335132000000000208e+00 -9.080724999999999270e+00 1.454488699999999923e+01 2.335091999999999945e+00 9.084027000000000740e+00 -1.455736300000000050e+01 -2.336697000000000024e+00 -9.085644999999999527e+00 1.455578700000000048e+01 -2.333692999999999795e+00 -9.078072000000000585e+00 1.454649299999999990e+01 -6.109999999999999980e-04 -1.229099999999999984e-02 9.529999999999999626e-04 2.334833000000000158e+00 9.085369999999999280e+00 -1.455596899999999927e+01 -7.209999999999999612e-04 -1.059799999999999978e-02 -1.955000000000000140e-03 1.987000000000000051e-03 4.512999999999999651e-03 4.350999999999999833e-03 2.335245000000000015e+00 9.084220000000000184e+00 -1.455958599999999947e+01 2.389000000000000064e-03 -2.189599999999999880e-02 -1.946999999999999946e-03 2.334153999999999840e+00 9.081445999999999685e+00 -1.455081799999999959e+01 -6.290000000000000018e-04 -7.186999999999999812e-03 5.980000000000000072e-04 2.335265999999999842e+00 9.084678999999999505e+00 -1.455571899999999985e+01 2.336673999999999918e+00 9.084763000000000588e+00 -1.456095900000000043e+01 6.380000000000000037e-04 -2.271000000000000015e-03 2.475999999999999902e-03 -2.335173999999999861e+00 -9.085152000000000783e+00 1.455343000000000053e+01 -2.990000000000000036e-04 -1.091800000000000062e-02 -1.940000000000000101e-03 -2.334871999999999836e+00 -9.085022999999999627e+00 1.455200499999999941e+01 2.918000000000000021e-03 -8.096000000000000765e-03 7.089999999999999948e-04 5.800000000000000034e-05 -1.208200000000000073e-02 -1.577000000000000060e-03 -2.332421000000000078e+00 -9.080536000000000385e+00 1.454309199999999969e+01 -2.335005999999999915e+00 -9.085701999999999501e+00 1.455627800000000072e+01 -2.337305000000000188e+00 -9.086436000000000845e+00 1.455759899999999973e+01 -2.335995000000000044e+00 -9.085228000000000748e+00 1.455493500000000040e+01 -3.690000000000000138e-03 -5.126999999999999613e-03 2.684999999999999887e-03 2.333938999999999986e+00 9.079297000000000395e+00 -1.455105700000000013e+01 2.567999999999999970e-03 -1.930000000000000075e-03 3.259999999999999877e-03 2.336724999999999941e+00 9.084758000000000777e+00 -1.456050300000000064e+01 2.334935000000000205e+00 9.081485000000000696e+00 -1.455121399999999987e+01 2.335754999999999804e+00 9.084281000000000716e+00 -1.455913400000000024e+01 -2.503000000000000017e-03 8.108000000000000623e-03 3.936000000000000262e-03 2.344999999999999862e-03 -1.332099999999999951e-02 1.237999999999999951e-03 -2.333607000000000209e+00 -9.080144999999999911e+00 1.454823799999999956e+01 -2.334916000000000214e+00 -9.085921000000000802e+00 1.455565799999999932e+01 -2.336526000000000103e+00 -9.082330000000000680e+00 1.455383800000000072e+01 -2.335517999999999983e+00 -9.083900999999999115e+00 1.455669699999999978e+01 2.336063999999999918e+00 9.084035000000000082e+00 -1.455592599999999948e+01 -2.334497999999999962e+00 -9.080709999999999837e+00 1.454784300000000030e+01 -2.336282000000000192e+00 -9.083170000000000854e+00 1.455453699999999984e+01 2.333651999999999838e+00 9.081125999999999365e+00 -1.454609300000000083e+01 -2.335294000000000203e+00 -9.083228999999999331e+00 1.455523999999999951e+01 2.334344999999999892e+00 9.084355999999999653e+00 -1.455575699999999983e+01 2.332673999999999914e+00 9.080152999999999253e+00 -1.454760699999999929e+01 -2.335922000000000054e+00 -9.085950000000000415e+00 1.455699100000000001e+01 -2.335078999999999905e+00 -9.084816000000000003e+00 1.455473300000000059e+01 2.335351000000000177e+00 9.084428000000000836e+00 -1.455813999999999986e+01 1.794000000000000022e-03 -4.758000000000000076e-03 3.902999999999999785e-03 2.332860000000000156e+00 9.077261999999999276e+00 -1.454728500000000047e+01 1.440000000000000036e-04 -1.139100000000000008e-02 -1.820000000000000057e-04 -1.730000000000000038e-04 1.209000000000000005e-03 3.249999999999999851e-03 2.331479999999999997e+00 9.079793999999999699e+00 -1.454593200000000053e+01 2.240999999999999936e-03 -1.915199999999999889e-02 -8.610000000000000032e-04 2.336521999999999988e+00 9.084006999999999721e+00 -1.455889299999999942e+01 -2.889999999999999774e-04 -8.689999999999999808e-03 -1.180999999999999975e-03 -2.334258000000000166e+00 -9.081443000000000154e+00 1.455208599999999919e+01 1.838999999999999923e-03 3.344999999999999883e-03 4.634000000000000098e-03 -2.334184000000000037e+00 -9.079869999999999663e+00 1.454790599999999934e+01 2.815999999999999927e-03 -4.127999999999999725e-03 2.481999999999999831e-03 2.821000000000000157e-03 -2.062399999999999997e-02 8.040000000000000271e-04 -2.332066000000000194e+00 -9.080275000000000318e+00 1.454858499999999921e+01 -2.334839000000000109e+00 -9.078988999999999976e+00 1.454408199999999951e+01 -2.332735000000000003e+00 -9.079565000000000552e+00 1.454568100000000008e+01 -2.335516000000000147e+00 -9.083757000000000303e+00 1.455237799999999915e+01 7.940000000000000009e-04 -1.623199999999999990e-02 -3.460000000000000076e-04 2.331955999999999918e+00 9.079613999999999407e+00 -1.454614399999999996e+01 2.335625999999999980e+00 9.085820000000000007e+00 -1.455862300000000076e+01 -8.339999999999999974e-04 5.734999999999999647e-03 3.930000000000000333e-03 2.333667999999999854e+00 9.082623999999999143e+00 -1.455693899999999985e+01 -2.333022999999999847e+00 -9.078901000000000110e+00 1.454411699999999996e+01 1.694999999999999892e-03 -5.481999999999999894e-03 1.518999999999999951e-03 7.600000000000000418e-05 -1.289700000000000048e-02 -1.502999999999999996e-03 -2.332761000000000084e+00 -9.080856999999999957e+00 1.454687400000000075e+01 2.335777000000000214e+00 9.080987000000000364e+00 -1.455017100000000063e+01 -2.334960000000000147e+00 -9.082482999999999862e+00 1.454794399999999932e+01 -2.334204999999999863e+00 -9.081860000000000710e+00 1.454718100000000014e+01 2.334575000000000067e+00 9.078751999999999711e+00 -1.454809000000000019e+01 -2.332110999999999823e+00 -9.081018999999999508e+00 1.454538200000000003e+01 -2.335081000000000184e+00 -9.085198000000000107e+00 1.455517700000000048e+01 2.334705000000000030e+00 9.079174999999999329e+00 -1.454936200000000035e+01 2.335907999999999873e+00 9.085257000000000360e+00 -1.456058799999999920e+01 -2.333143000000000189e+00 -9.081440999999999875e+00 1.454668900000000065e+01 2.336251999999999995e+00 9.084053000000000822e+00 -1.455958200000000069e+01 -2.335049000000000152e+00 -9.078597000000000250e+00 1.454675800000000052e+01 -2.334611000000000214e+00 -9.079833999999999961e+00 1.454902599999999957e+01 2.334442999999999824e+00 9.081158999999999537e+00 -1.454959200000000052e+01 2.334896000000000083e+00 9.083971000000000018e+00 -1.455442299999999989e+01 2.335354999999999848e+00 9.083849000000000729e+00 -1.455973400000000062e+01 3.359999999999999814e-04 -1.248999999999999893e-03 5.034000000000000280e-03 -8.000000000000000383e-04 -8.463000000000000037e-03 -3.330000000000000169e-04 3.330000000000000061e-03 -2.063900000000000109e-02 -2.056999999999999801e-03 2.333447000000000049e+00 9.081220999999999322e+00 -1.455013499999999915e+01 -1.041999999999999958e-03 2.210000000000000050e-04 3.553999999999999868e-03 1.170999999999999949e-03 2.759999999999999867e-04 4.117000000000000000e-03 6.409999999999999682e-04 5.950000000000000427e-04 2.177000000000000116e-03 -2.335318000000000005e+00 -9.084094999999999587e+00 1.455095999999999989e+01 7.190000000000000210e-04 -1.910000000000000022e-03 8.469999999999999881e-04 -2.333331999999999962e+00 -9.081231000000000719e+00 1.454427100000000017e+01 2.060000000000000199e-03 -3.357999999999999874e-03 3.641000000000000139e-03 1.410000000000000012e-03 -2.194000000000000117e-02 -2.808000000000000166e-03 -2.334467000000000070e+00 -9.081696000000000879e+00 1.454550200000000082e+01 -2.337142000000000053e+00 -9.085663999999999518e+00 1.455607700000000015e+01 2.333651999999999838e+00 9.079803000000000068e+00 -1.455238100000000045e+01 2.331964000000000148e+00 9.081258999999999304e+00 -1.454918499999999959e+01 2.334985000000000088e+00 9.085025999999999158e+00 -1.456136099999999978e+01 2.334735999999999922e+00 9.081887999999999295e+00 -1.455145300000000042e+01 1.337999999999999997e-03 -4.419000000000000185e-03 1.827000000000000065e-03 2.333502000000000187e+00 9.078972999999999516e+00 -1.454979499999999959e+01 1.910999999999999938e-03 -1.273999999999999959e-03 3.945999999999999855e-03 -2.335555999999999965e+00 -9.079357999999999151e+00 1.454697499999999977e+01 2.005999999999999971e-03 2.999999999999999737e-04 2.846000000000000005e-03 2.236000000000000140e-03 -1.518700000000000085e-02 5.670000000000000127e-04 -2.333077999999999985e+00 -9.079957000000000278e+00 1.454881800000000069e+01 -2.336643000000000026e+00 -9.085675999999999419e+00 1.455565400000000054e+01 -2.886000000000000110e-03 5.185000000000000372e-03 3.951999999999999784e-03 -2.336294999999999789e+00 -9.083235000000000170e+00 1.455606500000000025e+01 2.332904000000000089e+00 9.079750999999999905e+00 -1.454788399999999982e+01 2.333432000000000173e+00 9.081447000000000713e+00 -1.454731999999999914e+01 -2.334871000000000141e+00 -9.083023999999999987e+00 1.455466000000000015e+01 2.334363999999999884e+00 9.079720000000000013e+00 -1.454729700000000037e+01 2.335668000000000077e+00 9.084543999999999286e+00 -1.455675899999999956e+01 2.333874999999999922e+00 9.082309000000000410e+00 -1.454921299999999995e+01 -2.331879999999999953e+00 -9.080467999999999762e+00 1.454763100000000087e+01 -2.334226999999999830e+00 -9.080114999999999270e+00 1.454678900000000041e+01 -2.337762000000000118e+00 -9.085584000000000771e+00 1.455672999999999995e+01 2.334902000000000033e+00 9.078457000000000221e+00 -1.454947499999999927e+01 1.358000000000000049e-03 4.310000000000000137e-04 4.789999999999999987e-03 2.333511999999999809e+00 9.080137999999999820e+00 -1.454619800000000041e+01 2.160000000000000028e-03 -2.370000000000000145e-03 1.824000000000000100e-03 2.616999999999999969e-03 -6.661000000000000254e-03 2.480000000000000000e-03 -2.069999999999999900e-04 -1.091699999999999962e-02 -1.356000000000000000e-03 2.332323999999999842e+00 9.078063000000000216e+00 -1.454924600000000012e+01 1.464000000000000024e-03 -7.043999999999999914e-03 4.177000000000000157e-03 2.334044000000000008e+00 9.083622000000000085e+00 -1.455641400000000019e+01 2.334389999999999965e+00 9.080859999999999488e+00 -1.454792300000000083e+01