-1.412881274470000108e+03
-1.412881275420000065e+03
-1.412881276919999891e+03
-1.412881279100000029e+03
-1.412881282229999897e+03
