9.312848605160844784e+00 4.777576959885397493e-17 0.000000000000000000e+00 5.198061324111907799e-01 1.611355925604386741e+01 0.000000000000000000e+00 0.000000000000000000e+00 0.000000000000000000e+00 2.165276609000000008e+01
9.312848605160844784e+00 4.777576959885397493e-17 0.000000000000000000e+00 5.198061324111907799e-01 1.611355925604386741e+01 0.000000000000000000e+00 0.000000000000000000e+00 0.000000000000000000e+00 2.165276609000000008e+01
9.312848605160844784e+00 4.777576959885397493e-17 0.000000000000000000e+00 5.198061324111907799e-01 1.611355925604386741e+01 0.000000000000000000e+00 0.000000000000000000e+00 0.000000000000000000e+00 2.165276609000000008e+01
9.312848605160844784e+00 4.777576959885397493e-17 0.000000000000000000e+00 5.198061324111907799e-01 1.611355925604386741e+01 0.000000000000000000e+00 0.000000000000000000e+00 0.000000000000000000e+00 2.165276609000000008e+01
9.312848605160844784e+00 4.777576959885397493e-17 0.000000000000000000e+00 5.198061324111907799e-01 1.611355925604386741e+01 0.000000000000000000e+00 0.000000000000000000e+00 0.000000000000000000e+00 2.165276609000000008e+01
