9.829044801773381579e+00 1.611320788547183369e+01 4.875329999999999941e+00 1.635168223802977661e+00 2.685244747199966753e+00 4.875329999999999941e+00 1.193735749127319695e-01 3.581072986649749268e+00 2.314029999999999809e+00 1.584876066463294375e+00 8.954757497843450764e-01 2.314029999999999809e+00 3.620476806817193971e+00 1.611320549703872018e+01 4.875329999999999941e+00 4.739451898859519119e+00 2.685235946615658786e+00 4.875329999999999941e+00 3.223647577589960012e+00 3.581074503287858590e+00 2.314029999999999809e+00 4.689160063941387513e+00 8.954769440009023862e-01 2.314029999999999809e+00 6.724760804295287109e+00 1.611320669125527871e+01 4.875329999999999941e+00 7.843735896337612701e+00 2.685237140832215985e+00 4.875329999999999941e+00 6.327931575068053149e+00 3.581075697504415789e+00 2.314029999999999809e+00 7.793444061419481095e+00 8.954781382174598070e-01 2.314029999999999809e+00 9.482507407464279225e+00 5.370835894335729499e+00 4.875329999999999941e+00 1.808436920957528837e+00 8.056430742768018405e+00 4.875329999999999941e+00 2.926422720672831601e-01 8.952258982217800920e+00 2.314029999999999809e+00 1.758144763617845552e+00 6.266661745352397617e+00 2.314029999999999809e+00 3.273939412508091618e+00 5.370833505902615101e+00 4.875329999999999941e+00 4.912720596014070296e+00 8.056421942183710883e+00 4.875329999999999941e+00 3.396916274744511188e+00 8.952260498855912019e+00 2.314029999999999809e+00 4.862428761095938690e+00 6.266662939568954371e+00 2.314029999999999809e+00 6.378223409986184755e+00 5.370834700119171856e+00 4.875329999999999941e+00 8.017004593492163877e+00 8.056423136400267637e+00 4.875329999999999941e+00 6.501200272222604326e+00 8.952261693072468773e+00 2.314029999999999809e+00 7.966712758574032271e+00 6.266664133785512014e+00 2.314029999999999809e+00 9.655776104618830402e+00 1.074202188990378204e+01 4.875329999999999941e+00 1.981705618112080014e+00 1.342761673833607006e+01 4.875329999999999941e+00 4.659109692218344478e-01 1.432344497778585435e+01 2.314029999999999809e+00 1.931413460772396951e+00 1.163784774092044927e+01 2.314029999999999809e+00 3.447208109662642794e+00 1.074201950147066675e+01 4.875329999999999941e+00 5.085989615590174040e+00 1.342761793255262681e+01 4.875329999999999941e+00 3.570184971899062365e+00 1.432344649442396189e+01 2.314029999999999809e+00 5.035697458250489866e+00 1.163784893513700602e+01 2.314029999999999809e+00 6.551492107140735932e+00 1.074202069568722528e+01 4.875329999999999941e+00 8.190273290646715054e+00 1.342760913196831929e+01 4.875329999999999941e+00 6.674468969377155503e+00 1.432344768864052043e+01 2.314029999999999809e+00 8.139981455728584336e+00 1.163785012935356278e+01 2.314029999999999809e+00 9.829044801773381579e+00 1.611320788547183369e+01 1.209291999999999945e+01 1.635168223802977661e+00 2.685244747199966753e+00 1.209291999999999945e+01 1.193735749127319695e-01 3.581072986649749268e+00 9.531620000000000203e+00 1.584876066463294375e+00 8.954757497843450764e-01 9.531620000000000203e+00 3.620476806817193971e+00 1.611320549703872018e+01 1.209291999999999945e+01 4.739451898859519119e+00 2.685235946615658786e+00 1.209291999999999945e+01 3.223647577589960012e+00 3.581074503287858590e+00 9.531620000000000203e+00 4.689160063941387513e+00 8.954769440009023862e-01 9.531620000000000203e+00 6.724760804295287109e+00 1.611320669125527871e+01 1.209291999999999945e+01 7.843735896337612701e+00 2.685237140832215985e+00 1.209291999999999945e+01 6.327931575068053149e+00 3.581075697504415789e+00 9.531620000000000203e+00 7.793444061419481095e+00 8.954781382174598070e-01 9.531620000000000203e+00 9.482507407464279225e+00 5.370835894335729499e+00 1.209291999999999945e+01 1.808436920957528837e+00 8.056430742768018405e+00 1.209291999999999945e+01 2.926422720672831601e-01 8.952258982217800920e+00 9.531620000000000203e+00 1.758144763617845552e+00 6.266661745352397617e+00 9.531620000000000203e+00 3.273939412508091618e+00 5.370833505902615101e+00 1.209291999999999945e+01 4.912720596014070296e+00 8.056421942183710883e+00 1.209291999999999945e+01 3.396916274744511188e+00 8.952260498855912019e+00 9.531620000000000203e+00 4.862428761095938690e+00 6.266662939568954371e+00 9.531620000000000203e+00 6.378223409986184755e+00 5.370834700119171856e+00 1.209291999999999945e+01 8.017004593492163877e+00 8.056423136400267637e+00 1.209291999999999945e+01 6.501200272222604326e+00 8.952261693072468773e+00 9.531620000000000203e+00 7.966712758574032271e+00 6.266664133785512014e+00 9.531620000000000203e+00 9.655776104618830402e+00 1.074202188990378204e+01 1.209291999999999945e+01 1.981705618112080014e+00 1.342761673833607006e+01 1.209291999999999945e+01 4.659109692218344478e-01 1.432344497778585435e+01 9.531620000000000203e+00 1.931413460772396951e+00 1.163784774092044927e+01 9.531620000000000203e+00 3.447208109662642794e+00 1.074201950147066675e+01 1.209291999999999945e+01 5.085989615590174040e+00 1.342761793255262681e+01 1.209291999999999945e+01 3.570184971899062365e+00 1.432344649442396189e+01 9.531620000000000203e+00 5.035697458250489866e+00 1.163784893513700602e+01 9.531620000000000203e+00 6.551492107140735932e+00 1.074202069568722528e+01 1.209291999999999945e+01 8.190273290646715054e+00 1.342760913196831929e+01 1.209291999999999945e+01 6.674468969377155503e+00 1.432344768864052043e+01 9.531620000000000203e+00 8.139981455728584336e+00 1.163785012935356278e+01 9.531620000000000203e+00 9.829044801773381579e+00 1.611320788547183369e+01 1.931051000000000073e+01 1.635168223802977661e+00 2.685244747199966753e+00 1.931051000000000073e+01 1.193735749127319695e-01 3.581072986649749268e+00 1.674921000000000149e+01 1.584876066463294375e+00 8.954757497843450764e-01 1.674921000000000149e+01 3.620476806817193971e+00 1.611320549703872018e+01 1.931051000000000073e+01 4.739451898859519119e+00 2.685235946615658786e+00 1.931051000000000073e+01 3.223647577589960012e+00 3.581074503287858590e+00 1.674921000000000149e+01 4.689160063941387513e+00 8.954769440009023862e-01 1.674921000000000149e+01 6.724760804295287109e+00 1.611320669125527871e+01 1.931051000000000073e+01 7.843735896337612701e+00 2.685237140832215985e+00 1.931051000000000073e+01 6.327931575068053149e+00 3.581075697504415789e+00 1.674921000000000149e+01 7.793444061419481095e+00 8.954781382174598070e-01 1.674921000000000149e+01 9.482507407464279225e+00 5.370835894335729499e+00 1.931051000000000073e+01 1.808436920957528837e+00 8.056430742768018405e+00 1.931051000000000073e+01 2.926422720672831601e-01 8.952258982217800920e+00 1.674921000000000149e+01 1.758144763617845552e+00 6.266661745352397617e+00 1.674921000000000149e+01 3.273939412508091618e+00 5.370833505902615101e+00 1.931051000000000073e+01 4.912720596014070296e+00 8.056421942183710883e+00 1.931051000000000073e+01 3.396916274744511188e+00 8.952260498855912019e+00 1.674921000000000149e+01 4.862428761095938690e+00 6.266662939568954371e+00 1.674921000000000149e+01 6.378223409986184755e+00 5.370834700119171856e+00 1.931051000000000073e+01 8.017004593492163877e+00 8.056423136400267637e+00 1.931051000000000073e+01 6.501200272222604326e+00 8.952261693072468773e+00 1.674921000000000149e+01 7.966712758574032271e+00 6.266664133785512014e+00 1.674921000000000149e+01 9.655776104618830402e+00 1.074202188990378204e+01 1.931051000000000073e+01 1.981705618112080014e+00 1.342761673833607006e+01 1.931051000000000073e+01 4.659109692218344478e-01 1.432344497778585435e+01 1.674921000000000149e+01 1.931413460772396951e+00 1.163784774092044927e+01 1.674921000000000149e+01 3.447208109662642794e+00 1.074201950147066675e+01 1.931051000000000073e+01 5.085989615590174040e+00 1.342761793255262681e+01 1.931051000000000073e+01 3.570184971899062365e+00 1.432344649442396189e+01 1.674921000000000149e+01 5.035697458250489866e+00 1.163784893513700602e+01 1.674921000000000149e+01 6.551492107140735932e+00 1.074202069568722528e+01 1.931051000000000073e+01 8.190273290646715054e+00 1.342760913196831929e+01 1.931051000000000073e+01 6.674468969377155503e+00 1.432344768864052043e+01 1.674921000000000149e+01 8.139981455728584336e+00 1.163785012935356278e+01 1.674921000000000149e+01 5.788498258374611544e-02 1.790354492772668671e+00 3.594660000000000188e+00 9.413216422563579044e+00 3.580789315748599044e+00 5.925650000000000084e+00 1.654176078900203573e+00 2.685492021547326580e+00 1.263700000000000045e+00 1.886635925487756549e-01 5.371089580834283339e+00 1.263700000000000045e+00 1.696656171288859927e+00 4.475943251475316131e+00 3.594660000000000188e+00 1.565876916480726466e+00 8.951881738119711329e-01 5.925650000000000084e+00 3.162168980061839552e+00 1.790355686989226092e+00 3.594660000000000188e+00 3.204648427607391881e+00 3.580786927315484203e+00 5.925650000000000084e+00 4.758460076378297821e+00 2.685493215763884223e+00 1.263700000000000045e+00 3.292947590026868987e+00 5.371090775050840094e+00 1.263700000000000045e+00 4.800940168766953065e+00 4.475944445691873774e+00 3.594660000000000188e+00 4.670160913958818938e+00 8.951893680285284427e-01 5.925650000000000084e+00 6.266452655118381010e+00 1.790346886404917681e+00 3.594660000000000188e+00 6.308932425085485463e+00 3.580788121532041846e+00 5.925650000000000084e+00 7.862744073856390514e+00 2.685494409980440977e+00 1.263700000000000045e+00 6.397231587504962569e+00 5.371091969267397737e+00 1.263700000000000045e+00 7.905224166245046646e+00 4.475945639908431417e+00 3.594660000000000188e+00 7.774444911436913408e+00 8.951905622450857525e-01 5.925650000000000084e+00 2.311536797382973407e-01 7.161540488340720323e+00 3.594660000000000188e+00 9.586485119718130221e+00 8.951975311316651585e+00 5.925650000000000084e+00 1.827444776054754749e+00 8.056678017115377344e+00 1.263700000000000045e+00 3.619322897033268593e-01 1.074227557640233499e+01 1.263700000000000045e+00 1.869924868443411103e+00 9.847129247043369560e+00 3.594660000000000188e+00 1.739145613635277643e+00 6.266374169380022785e+00 5.925650000000000084e+00 3.335437677216390728e+00 7.161541682557277966e+00 3.594660000000000188e+00 3.377917124761943057e+00 8.951972922883536299e+00 5.925650000000000084e+00 4.931728773532848997e+00 8.056679211331935875e+00 1.263700000000000045e+00 3.466216287181420608e+00 1.074227677061889175e+01 1.263700000000000045e+00 4.974208865921504241e+00 9.847130441259926315e+00 3.594660000000000188e+00 4.843429611113370115e+00 6.266375363596580428e+00 5.925650000000000084e+00 6.439721352272933075e+00 7.161532881972970443e+00 3.594660000000000188e+00 6.482201122240036639e+00 8.951974117100093054e+00 5.925650000000000084e+00 8.036012771010941691e+00 8.056680405548494406e+00 1.263700000000000045e+00 6.570500284659513746e+00 1.074227796483544850e+01 1.263700000000000045e+00 8.078492863399597823e+00 9.847131635476483069e+00 3.594660000000000188e+00 7.947713608591464585e+00 6.266376557813138071e+00 5.925650000000000084e+00 4.044223768928485452e-01 1.253272648390877109e+01 3.594660000000000188e+00 9.759753816872681398e+00 1.432316130688470324e+01 5.925650000000000084e+00 2.000713473209306148e+00 1.342786401268343077e+01 1.263700000000000045e+00 5.352009868578782026e-01 1.611346157197038664e+01 1.263700000000000045e+00 2.043193565597962280e+00 1.521831524261141944e+01 3.594660000000000188e+00 1.912414310789828820e+00 1.163756016494807533e+01 5.925650000000000084e+00 3.508706374370941905e+00 1.253272767812533139e+01 3.594660000000000188e+00 3.551185821916494234e+00 1.432315891845158973e+01 5.925650000000000084e+00 5.104997470687400174e+00 1.342786520689998753e+01 1.263700000000000045e+00 3.639484984335971784e+00 1.611346276618694162e+01 1.263700000000000045e+00 5.147477563076055418e+00 1.521831643682797797e+01 3.594660000000000188e+00 5.016698308267922179e+00 1.163756135916463208e+01 5.925650000000000084e+00 6.612990049427484252e+00 1.253271887754102210e+01 3.594660000000000188e+00 6.655469819394587816e+00 1.432316011266814648e+01 5.925650000000000084e+00 8.209281468165492868e+00 1.342786640111654606e+01 1.263700000000000045e+00 6.743768981814064922e+00 1.611346396040350371e+01 1.263700000000000045e+00 8.251761560554149000e+00 1.521831763104453472e+01 3.594660000000000188e+00 8.120982305746014873e+00 1.163756255338118883e+01 5.925650000000000084e+00 5.788498258374611544e-02 1.790354492772668671e+00 1.081225000000000058e+01 9.413216422563579044e+00 3.580789315748599044e+00 1.314324000000000048e+01 1.654176078900203573e+00 2.685492021547326580e+00 8.481289999999999552e+00 1.886635925487756549e-01 5.371089580834283339e+00 8.481289999999999552e+00 1.696656171288859927e+00 4.475943251475316131e+00 1.081225000000000058e+01 1.565876916480726466e+00 8.951881738119711329e-01 1.314324000000000048e+01 3.162168980061839552e+00 1.790355686989226092e+00 1.081225000000000058e+01 3.204648427607391881e+00 3.580786927315484203e+00 1.314324000000000048e+01 4.758460076378297821e+00 2.685493215763884223e+00 8.481289999999999552e+00 3.292947590026868987e+00 5.371090775050840094e+00 8.481289999999999552e+00 4.800940168766953065e+00 4.475944445691873774e+00 1.081225000000000058e+01 4.670160913958818938e+00 8.951893680285284427e-01 1.314324000000000048e+01 6.266452655118381010e+00 1.790346886404917681e+00 1.081225000000000058e+01 6.308932425085485463e+00 3.580788121532041846e+00 1.314324000000000048e+01 7.862744073856390514e+00 2.685494409980440977e+00 8.481289999999999552e+00 6.397231587504962569e+00 5.371091969267397737e+00 8.481289999999999552e+00 7.905224166245046646e+00 4.475945639908431417e+00 1.081225000000000058e+01 7.774444911436913408e+00 8.951905622450857525e-01 1.314324000000000048e+01 2.311536797382973407e-01 7.161540488340720323e+00 1.081225000000000058e+01 9.586485119718130221e+00 8.951975311316651585e+00 1.314324000000000048e+01 1.827444776054754749e+00 8.056678017115377344e+00 8.481289999999999552e+00 3.619322897033268593e-01 1.074227557640233499e+01 8.481289999999999552e+00 1.869924868443411103e+00 9.847129247043369560e+00 1.081225000000000058e+01 1.739145613635277643e+00 6.266374169380022785e+00 1.314324000000000048e+01 3.335437677216390728e+00 7.161541682557277966e+00 1.081225000000000058e+01 3.377917124761943057e+00 8.951972922883536299e+00 1.314324000000000048e+01 4.931728773532848997e+00 8.056679211331935875e+00 8.481289999999999552e+00 3.466216287181420608e+00 1.074227677061889175e+01 8.481289999999999552e+00 4.974208865921504241e+00 9.847130441259926315e+00 1.081225000000000058e+01 4.843429611113370115e+00 6.266375363596580428e+00 1.314324000000000048e+01 6.439721352272933075e+00 7.161532881972970443e+00 1.081225000000000058e+01 6.482201122240036639e+00 8.951974117100093054e+00 1.314324000000000048e+01 8.036012771010941691e+00 8.056680405548494406e+00 8.481289999999999552e+00 6.570500284659513746e+00 1.074227796483544850e+01 8.481289999999999552e+00 8.078492863399597823e+00 9.847131635476483069e+00 1.081225000000000058e+01 7.947713608591464585e+00 6.266376557813138071e+00 1.314324000000000048e+01 4.044223768928485452e-01 1.253272648390877109e+01 1.081225000000000058e+01 9.759753816872681398e+00 1.432316130688470324e+01 1.314324000000000048e+01 2.000713473209306148e+00 1.342786401268343077e+01 8.481289999999999552e+00 5.352009868578782026e-01 1.611346157197038664e+01 8.481289999999999552e+00 2.043193565597962280e+00 1.521831524261141944e+01 1.081225000000000058e+01 1.912414310789828820e+00 1.163756016494807533e+01 1.314324000000000048e+01 3.508706374370941905e+00 1.253272767812533139e+01 1.081225000000000058e+01 3.551185821916494234e+00 1.432315891845158973e+01 1.314324000000000048e+01 5.104997470687400174e+00 1.342786520689998753e+01 8.481289999999999552e+00 3.639484984335971784e+00 1.611346276618694162e+01 8.481289999999999552e+00 5.147477563076055418e+00 1.521831643682797797e+01 1.081225000000000058e+01 5.016698308267922179e+00 1.163756135916463208e+01 1.314324000000000048e+01 6.612990049427484252e+00 1.253271887754102210e+01 1.081225000000000058e+01 6.655469819394587816e+00 1.432316011266814648e+01 1.314324000000000048e+01 8.209281468165492868e+00 1.342786640111654606e+01 8.481289999999999552e+00 6.743768981814064922e+00 1.611346396040350371e+01 8.481289999999999552e+00 8.251761560554149000e+00 1.521831763104453472e+01 1.081225000000000058e+01 8.120982305746014873e+00 1.163756255338118883e+01 1.314324000000000048e+01 5.788498258374611544e-02 1.790354492772668671e+00 1.802984000000000009e+01 9.413216422563579044e+00 3.580789315748599044e+00 2.036082999999999998e+01 1.654176078900203573e+00 2.685492021547326580e+00 1.569888000000000083e+01 1.886635925487756549e-01 5.371089580834283339e+00 1.569888000000000083e+01 1.696656171288859927e+00 4.475943251475316131e+00 1.802984000000000009e+01 1.565876916480726466e+00 8.951881738119711329e-01 2.036082999999999998e+01 3.162168980061839552e+00 1.790355686989226092e+00 1.802984000000000009e+01 3.204648427607391881e+00 3.580786927315484203e+00 2.036082999999999998e+01 4.758460076378297821e+00 2.685493215763884223e+00 1.569888000000000083e+01 3.292947590026868987e+00 5.371090775050840094e+00 1.569888000000000083e+01 4.800940168766953065e+00 4.475944445691873774e+00 1.802984000000000009e+01 4.670160913958818938e+00 8.951893680285284427e-01 2.036082999999999998e+01 6.266452655118381010e+00 1.790346886404917681e+00 1.802984000000000009e+01 6.308932425085485463e+00 3.580788121532041846e+00 2.036082999999999998e+01 7.862744073856390514e+00 2.685494409980440977e+00 1.569888000000000083e+01 6.397231587504962569e+00 5.371091969267397737e+00 1.569888000000000083e+01 7.905224166245046646e+00 4.475945639908431417e+00 1.802984000000000009e+01 7.774444911436913408e+00 8.951905622450857525e-01 2.036082999999999998e+01 2.311536797382973407e-01 7.161540488340720323e+00 1.802984000000000009e+01 9.586485119718130221e+00 8.951975311316651585e+00 2.036082999999999998e+01 1.827444776054754749e+00 8.056678017115377344e+00 1.569888000000000083e+01 3.619322897033268593e-01 1.074227557640233499e+01 1.569888000000000083e+01 1.869924868443411103e+00 9.847129247043369560e+00 1.802984000000000009e+01 1.739145613635277643e+00 6.266374169380022785e+00 2.036082999999999998e+01 3.335437677216390728e+00 7.161541682557277966e+00 1.802984000000000009e+01 3.377917124761943057e+00 8.951972922883536299e+00 2.036082999999999998e+01 4.931728773532848997e+00 8.056679211331935875e+00 1.569888000000000083e+01 3.466216287181420608e+00 1.074227677061889175e+01 1.569888000000000083e+01 4.974208865921504241e+00 9.847130441259926315e+00 1.802984000000000009e+01 4.843429611113370115e+00 6.266375363596580428e+00 2.036082999999999998e+01 6.439721352272933075e+00 7.161532881972970443e+00 1.802984000000000009e+01 6.482201122240036639e+00 8.951974117100093054e+00 2.036082999999999998e+01 8.036012771010941691e+00 8.056680405548494406e+00 1.569888000000000083e+01 6.570500284659513746e+00 1.074227796483544850e+01 1.569888000000000083e+01 8.078492863399597823e+00 9.847131635476483069e+00 1.802984000000000009e+01 7.947713608591464585e+00 6.266376557813138071e+00 2.036082999999999998e+01 4.044223768928485452e-01 1.253272648390877109e+01 1.802984000000000009e+01 9.759753816872681398e+00 1.432316130688470324e+01 2.036082999999999998e+01 2.000713473209306148e+00 1.342786401268343077e+01 1.569888000000000083e+01 5.352009868578782026e-01 1.611346157197038664e+01 1.569888000000000083e+01 2.043193565597962280e+00 1.521831524261141944e+01 1.802984000000000009e+01 1.912414310789828820e+00 1.163756016494807533e+01 2.036082999999999998e+01 3.508706374370941905e+00 1.253272767812533139e+01 1.802984000000000009e+01 3.551185821916494234e+00 1.432315891845158973e+01 2.036082999999999998e+01 5.104997470687400174e+00 1.342786520689998753e+01 1.569888000000000083e+01 3.639484984335971784e+00 1.611346276618694162e+01 1.569888000000000083e+01 5.147477563076055418e+00 1.521831643682797797e+01 1.802984000000000009e+01 5.016698308267922179e+00 1.163756135916463208e+01 2.036082999999999998e+01 6.612990049427484252e+00 1.253271887754102210e+01 1.802984000000000009e+01 6.655469819394587816e+00 1.432316011266814648e+01 2.036082999999999998e+01 8.209281468165492868e+00 1.342786640111654606e+01 1.569888000000000083e+01 6.743768981814064922e+00 1.611346396040350371e+01 1.569888000000000083e+01 8.251761560554149000e+00 1.521831763104453472e+01 1.802984000000000009e+01 8.120982305746014873e+00 1.163756255338118883e+01 2.036082999999999998e+01