-2.824387957559999904e+03
-2.824351006030000008e+03
-2.824240430129999822e+03
-2.824056998819999990e+03
-2.823802034589999948e+03
