-8.058837186953686157e-03 3.732774999135680775e-03 -8.000000000000000654e-05 -8.253799860553235473e-03 4.233321256641333144e-03 -5.810000000000000277e-04 7.904497410772478444e-03 -4.547222194163286213e-03 2.570000000000000127e-04 7.259736188822356329e-03 -4.343327695293441870e-03 7.360000000000000006e-04 -7.782722558751203890e-03 3.948984878865087478e-03 -8.469999999999999881e-04 -8.315671193422396329e-03 3.897141337299036157e-03 -1.080000000000000014e-03 8.259958085470392453e-03 -4.073436684947032843e-03 5.919999999999999698e-04 8.109939506367134024e-03 -3.885502052896846505e-03 2.099999999999999884e-05 -8.255443809602459188e-03 4.647589644804760514e-03 -1.273000000000000043e-03 -7.586566818512103030e-03 3.609483883916250226e-03 -3.879999999999999985e-04 7.936674413544104675e-03 -4.325144188740338846e-03 6.710000000000000469e-04 8.337208204807811801e-03 -4.097940134956254074e-03 3.099999999999999999e-04 -7.819316816957133653e-03 3.496929727067922544e-03 -4.159999999999999744e-04 -8.284074469271106994e-03 4.194277075679505792e-03 -8.999999999999999754e-04 8.129671197581159539e-03 -3.863126611854615731e-03 -1.510000000000000112e-04 8.330566427735894633e-03 -4.179768533433353417e-03 6.870000000000000022e-04 -7.592692640927854904e-03 3.636695541339689773e-03 -2.579999999999999828e-04 -8.089402322485070643e-03 3.281525874493927773e-03 3.009999999999999980e-04 8.335209244634694120e-03 -4.097875650645872204e-03 1.479999999999999925e-04 8.256637410729383494e-03 -3.866221885477342038e-03 -2.300000000000000070e-04 -8.289168489271999188e-03 4.315504345549905051e-03 3.699999999999999811e-05 -7.802873691950771087e-03 3.572438823473753425e-03 -4.989999999999999861e-04 7.255190178562236948e-03 -4.329173763305655190e-03 5.429999999999999714e-04 8.649691021988724360e-03 -3.870897211775019709e-03 -3.999999999999999819e-06 -8.314349879720036793e-03 3.224749149561775136e-03 -1.472999999999999917e-03 -8.226072248473631499e-03 4.348487134957625642e-03 -7.669999999999999951e-04 8.277400610390207858e-03 -4.091008205211983835e-03 -4.490000000000000176e-04 7.923713387849655801e-03 -4.354741685474823251e-03 2.449999999999999921e-04 -7.577862238341532587e-03 2.948859762131362215e-03 -8.469999999999999881e-04 -7.875835791718339626e-03 3.512760251125653013e-03 -1.170999999999999949e-03 8.616965902578847467e-03 -4.109966378669475603e-03 -2.259999999999999910e-04 7.869644522914930398e-03 -4.604128048062416760e-03 -2.139999999999999975e-04 -8.254735470989893811e-03 3.521981587683450064e-03 -9.510000000000000224e-04 -7.566222526349444984e-03 3.650849446603108076e-03 -1.038999999999999993e-03 8.297261002981313333e-03 -4.374796092208817211e-03 4.130000000000000099e-04 8.283623132547166326e-03 -4.146237547214276162e-03 1.359999999999999989e-04 -8.011055809524934498e-03 3.477101496458904605e-03 9.100000000000000287e-05 -8.251898134608696284e-03 3.640951960139200694e-03 -1.064000000000000059e-03 7.868483992398627586e-03 -4.422996457308840321e-03 4.899999999999999842e-05 7.267990180551310228e-03 -4.087460793134255546e-03 1.016999999999999892e-03 -7.844271416619714304e-03 3.684832010065443135e-03 -6.809999999999999647e-04 -8.305999268422984902e-03 3.359549992626518176e-03 -1.652999999999999955e-03 8.353877051624882324e-03 -3.984418553105977673e-03 4.229999999999999819e-04 8.131767151463537707e-03 -3.550031407520018532e-03 2.349999999999999930e-04 -8.259474239347574034e-03 4.336557884953663733e-03 -1.033000000000000064e-03 -7.546878275485088654e-03 3.040908629836024633e-03 -9.309999999999999699e-04 7.932483173888565595e-03 -4.175931476446278177e-03 4.899999999999999842e-04 8.312253712042706397e-03 -3.785973352604612811e-03 5.580000000000000107e-04 -7.807806714970659534e-03 3.450534495068708143e-03 -1.139000000000000038e-03 -8.293359889273755475e-03 4.278620308812783844e-03 -1.441999999999999922e-03 8.159429798194124672e-03 -3.995154736470388039e-03 1.079999999999999960e-04 8.266631623658865849e-03 -4.548899053476916816e-03 4.719999999999999803e-04 -7.553648513414765175e-03 3.544388682944760519e-03 -9.399999999999999719e-04 -8.058515086094199947e-03 3.370576301938911935e-03 -2.149999999999999947e-04 8.257991233830620781e-03 -4.227453344742742106e-03 3.939999999999999817e-04 8.331436805579845242e-03 -4.338879320127431855e-03 -3.820000000000000153e-04 -8.219753053299838283e-03 4.234223983537950368e-03 -7.489999999999999913e-04 -7.760218389607526079e-03 3.654105984450528415e-03 -1.046000000000000055e-03 7.317190025737893913e-03 -4.516270045872132662e-03 8.339999999999999974e-04 8.650980253882105397e-03 -4.358192130567659431e-03 -1.679999999999999907e-04 -8.321023391184139209e-03 3.731227642930188843e-03 -1.467999999999999904e-03 -8.223815137264034111e-03 4.604547490047957575e-03 -3.609999999999999928e-04 8.326343079547006074e-03 -3.876474677033202483e-03 1.769999999999999926e-04 7.916878184570959667e-03 -4.411550839632748071e-03 8.199999999999999824e-04 -7.578796779803441928e-03 3.478165086714684554e-03 -7.759999999999999971e-04 -7.818865212989507471e-03 3.759051446987994160e-03 -6.890000000000000508e-04 8.592075813951020533e-03 -3.889049010660306296e-03 3.629999999999999872e-04 7.845753754027446833e-03 -4.569339671239618962e-03 3.629999999999999872e-04 -8.194637216136932412e-03 4.082335225811755883e-03 -8.869999999999999846e-04 -7.632994052147189928e-03 3.876119425389987043e-03 -5.550000000000000462e-04 8.267373513920686992e-03 -4.153717513423691061e-03 1.000999999999999937e-03 8.334919011789234181e-03 -4.168903221101965574e-03 7.140000000000000079e-04 -8.016375872028963859e-03 3.188122782822496327e-03 1.050000000000000044e-04 -8.236035234773932123e-03 3.853551039179614612e-03 -9.719999999999999907e-04 7.847913844803416222e-03 -4.657455129632794531e-03 6.099999999999999872e-05 7.278919683225024313e-03 -4.430991790238309261e-03 5.500000000000000331e-04 -7.799456183846711910e-03 3.492286963617860680e-03 -6.719999999999999628e-04 -8.325053714031782279e-03 3.544260382433213601e-03 -1.521000000000000000e-03 8.293521180222815717e-03 -4.180574533864397403e-03 4.049999999999999781e-04 8.183739768547830182e-03 -3.954917622490854504e-03 -1.769999999999999926e-04 -8.304644483244472131e-03 4.114899027548202422e-03 -1.067999999999999939e-03 -7.588179166790982519e-03 3.280364756041512404e-03 -8.409999999999999507e-04 7.910655582240895198e-03 -4.449369872146047115e-03 5.209999999999999788e-04 8.263149898488111184e-03 -4.160584905408841808e-03 6.899999999999999667e-05 -7.846560529465184189e-03 3.706917298435322139e-03 -8.980000000000000352e-04 -8.307997266518828833e-03 4.476194971123985226e-03 -1.075999999999999917e-03 8.188189319586062706e-03 -3.661908746353017760e-03 2.539999999999999940e-04 8.311092620314661575e-03 -4.256180383460169900e-03 7.699999999999999597e-04 -7.567931173503998458e-03 3.814989875885175120e-03 -7.200000000000000453e-04 -8.026176925995352762e-03 3.535619458117596203e-03 1.110000000000000011e-04 8.258604075298573918e-03 -3.929318099551343951e-03 5.419999999999999471e-04 8.253864531934199458e-03 -4.014209422598504287e-03 -7.899999999999999579e-05 -8.243224460374882698e-03 4.530134600194260508e-03 -5.270000000000000162e-04 -7.809096053761514084e-03 3.813764914507226760e-03 -6.920000000000000153e-04 7.295266242112027379e-03 -4.172384385060975628e-03 9.899999999999999946e-04 8.608615478352376824e-03 -4.027654347864508336e-03 2.249999999999999938e-04 -8.306901754800283255e-03 3.672741923426689047e-03 -1.198000000000000063e-03 -8.261892347538178638e-03 4.323629128138775472e-03 -2.249999999999999938e-04 8.290426066946302713e-03 -4.121443997981440351e-03 -3.069999999999999812e-04 7.895792536633854108e-03 -4.227775445602230051e-03 6.170000000000000354e-04 -7.602268507570912083e-03 3.401882205308632244e-03 -5.029999999999999749e-04 -7.803969951951641656e-03 3.507440375692206635e-03 -6.239999999999999887e-04 8.667101117682771486e-03 -4.106581085996240284e-03 -1.039999999999999936e-04 7.936545418198971691e-03 -4.360158233925106111e-03 1.749999999999999982e-04 -8.176549901562028128e-03 4.022721057600931772e-03 -6.409999999999999682e-04 -7.598044758516492650e-03 3.563830221486433397e-03 -4.429999999999999802e-04 8.299550142551154197e-03 -4.365865255740165179e-03 5.169999999999999899e-04 8.316670620060218413e-03 -3.959205829131287428e-03 5.019999999999999506e-04 -4.171982552843073508e-05 4.745918837884581173e-04 1.031000000000000015e-03 6.437067912330205616e-03 -3.668452220221607007e-03 -4.285999999999999879e-03 -6.947672038620291216e-03 5.115667624442947828e-03 3.804999999999999789e-03 -6.654275722132786154e-03 5.743534331214028218e-03 4.503000000000000058e-03 -1.875796209262899864e-04 2.641853247497849577e-04 8.809999999999999472e-04 7.351785831533711249e-03 -3.474844037832513100e-03 -4.390999999999999938e-03 4.688858507750412854e-04 8.263117202018651969e-04 1.016999999999999892e-03 7.244550561317187817e-03 -4.317824818646398555e-03 -3.917000000000000343e-03 -7.017926305114802199e-03 4.550639007433757155e-03 3.963999999999999642e-03 -7.443768103702862182e-03 5.958100823105956685e-03 4.492000000000000333e-03 1.608872854294748279e-05 3.746760638389798944e-04 1.665000000000000030e-03 6.460797604063574229e-03 -3.553157373284550336e-03 -4.283999999999999614e-03 -2.337168622352373611e-04 3.227033131328450963e-04 8.679999999999999565e-04 6.815580605566360847e-03 -3.782715692333706286e-03 -4.322000000000000321e-03 -7.630382036711170352e-03 4.422319184979243804e-03 3.948000000000000120e-03 -7.437320447671310480e-03 5.258529220100447051e-03 4.348999999999999568e-03 1.194220031477459488e-04 2.903005083774049607e-04 1.270999999999999994e-03 6.488976526142751361e-03 -3.517047148272018503e-03 -4.282000000000000216e-03 -1.641725912641520319e-04 9.034024727447710450e-05 3.449999999999999833e-04 6.328284350555285313e-03 -5.334811166153593555e-03 -4.499000000000000395e-03 -7.371967175836447068e-03 5.454523990082909939e-03 4.063999999999999904e-03 -6.970209679240122261e-03 3.982805296198561190e-03 3.311999999999999840e-03 -1.027209943485898278e-04 -2.688278209561595724e-04 -9.120000000000000502e-04 6.944899934831801416e-03 -4.364187541246735205e-03 -4.486999999999999669e-03 1.756507717878601704e-04 2.344585387021105318e-04 3.400000000000000244e-04 6.675458737920315563e-03 -5.179924288860146553e-03 -4.418000000000000052e-03 -6.549298257959447478e-03 5.524035511135797806e-03 4.076999999999999895e-03 -7.584696532991693461e-03 3.946598852483461373e-03 3.360999999999999838e-03 3.552981277035213812e-05 -1.082018133143050533e-04 -7.100000000000000191e-04 6.699639846550730846e-03 -5.019620595872729442e-03 -4.570000000000000277e-03 -4.446048889279121151e-05 2.965877019153255706e-04 6.939999999999999555e-04 7.166332295419864003e-03 -5.346837890905452827e-03 -4.517000000000000182e-03 -7.192737872239154430e-03 5.396715195492213409e-03 4.061000000000000373e-03 -6.907435352230657799e-03 4.595099656672760498e-03 3.184000000000000198e-03 4.488312302460979166e-04 2.046351063619685439e-04 -7.889999999999999878e-04 6.889477033000886499e-03 -4.500471443277169123e-03 -3.677000000000000147e-03 7.728204080018645430e-05 -3.956974679850230512e-04 -6.179999999999999513e-04 6.723402395099771327e-03 -4.189955397562920500e-03 -5.452000000000000249e-03 -7.434710222767994779e-03 3.726648615508185158e-03 2.696000000000000046e-03 -6.705121333625664072e-03 4.477515483095283015e-03 3.217999999999999940e-03 -9.343514675604148501e-05 1.430869433270449823e-04 5.069999999999999637e-04 6.977011624837615653e-03 -5.105608365991340727e-03 -5.395999999999999755e-03 1.950916689446837912e-04 -4.655322123208853751e-04 -9.240000000000000166e-04 6.928747523709533063e-03 -3.810378820102930126e-03 -4.564999999999999614e-03 -6.681875594912587389e-03 4.205624630671588558e-03 2.821999999999999856e-03 -7.237102810538595908e-03 4.331591844771890548e-03 3.183000000000000065e-03 -1.755538315273367101e-04 1.666890026580850246e-05 2.429999999999999977e-04 6.413627357743177833e-03 -4.984380615082304594e-03 -5.200999999999999894e-03 -2.808864938951533929e-04 -3.951490573787162200e-04 -1.289999999999999914e-03 6.918108200432541294e-03 -3.457852502219842510e-03 -5.366000000000000110e-03 -7.566737679274548531e-03 4.472293135858472490e-03 2.890000000000000208e-03 -7.398438279216499984e-03 4.292773465793877155e-03 3.103999999999999988e-03 8.040995744363507139e-05 1.975100978277131048e-04 1.069999999999999988e-04 7.076701375559593318e-03 -5.489021920265299039e-03 -4.955000000000000203e-03 -2.191878616891517919e-06 6.143901005616291509e-04 1.302999999999999905e-03 6.522280855198216154e-03 -4.593680707876290729e-03 -3.605000000000000131e-03 -6.524859452606820986e-03 5.413189921268918466e-03 4.163000000000000034e-03 -6.517863626488280132e-03 4.792641729411977261e-03 4.021000000000000268e-03 -1.693959005782370115e-04 -1.646239012637230751e-04 5.569999999999999864e-04 7.399760207579340020e-03 -4.251794782244944747e-03 -3.151999999999999854e-03 4.173966789480374395e-04 1.029077262601379647e-03 1.224999999999999960e-03 7.427003251978172432e-03 -5.237185474575598541e-03 -3.304000000000000079e-03 -6.868100697904053371e-03 4.914997741957756461e-03 4.288000000000000145e-03 -7.221690900010976563e-03 4.995440075178427149e-03 4.003999999999999747e-03 9.601438554949604887e-05 -2.182091605949500960e-04 1.266999999999999897e-03 6.509964993300016919e-03 -4.231095104817227635e-03 -3.137000000000000031e-03 -2.457426249098218799e-04 6.012358624553516958e-04 1.167000000000000069e-03 7.033530973739981519e-03 -4.687213142309649277e-03 -3.799999999999999992e-03 -7.429357249999557662e-03 4.792029930194406477e-03 4.357999999999999895e-03 -7.336534971435836744e-03 4.319791616837433471e-03 3.840999999999999796e-03 1.321890948724101711e-04 -2.443891225010084902e-04 9.640000000000000131e-04 6.749131047006259355e-03 -4.074725034936246132e-03 -2.997999999999999797e-03 -2.650564776004287197e-04 -9.279364545495846859e-04 1.002999999999999985e-03 6.584312650561007993e-03 -5.120954883580040341e-03 -3.586000000000000212e-03 -7.138219247318242609e-03 3.768110664141298676e-03 3.647000000000000068e-03 -6.697351989750589471e-03 3.539777440091934277e-03 3.488000000000000215e-03 -1.303843626371319292e-04 -6.611398626461036793e-04 1.193999999999999966e-03 7.059549724870084128e-03 -4.656035833419531512e-03 -3.556999999999999832e-03 1.893847807514678595e-04 -6.734563124804150355e-04 9.319999999999999942e-04 6.688129824737361860e-03 -4.880176989357924537e-03 -3.448999999999999809e-03 -6.408082776025036606e-03 3.915646196429302568e-03 3.605999999999999830e-03 -7.270763406763286647e-03 3.536263633112202414e-03 3.308999999999999875e-03 -2.618046966906415542e-05 -6.254810812549866771e-04 1.379999999999999933e-03 7.002578852173197213e-03 -5.243504402505704508e-03 -3.670000000000000085e-03 -3.450391644098347940e-06 -6.652346163553895858e-04 1.294000000000000011e-03 7.364068462475076987e-03 -4.986025740003750817e-03 -3.536000000000000081e-03 -7.118713144293080559e-03 3.907554243931734769e-03 3.644999999999999803e-03 -6.724434170790259159e-03 4.126955909954491825e-03 3.271000000000000036e-03 3.679052112488221684e-04 -2.259795467204045840e-04 1.229999999999999974e-03 7.016507195972120428e-03 -5.121890253497378941e-03 -2.797000000000000007e-03 -1.534657103743732186e-05 3.306667245995473237e-04 2.392000000000000029e-03 6.864812746356872657e-03 -4.148493215307962924e-03 -3.683000000000000076e-03 -7.285012648825104319e-03 5.172573799034502380e-03 3.752999999999999826e-03 -6.446415705418108086e-03 6.201070355425645879e-03 4.497000000000000129e-03 -1.038806429607250410e-04 9.358358894689101882e-04 2.230000000000000211e-03 7.132125533435838480e-03 -3.894980150823949827e-03 -3.851999999999999955e-03 1.070736318506680559e-04 3.417253829646074259e-04 1.887999999999999921e-03 7.005900996754486042e-03 -3.744832335856238242e-03 -2.925000000000000083e-03 -6.534628504937339127e-03 5.482540953103806972e-03 3.873000000000000140e-03 -7.024792360881515832e-03 6.105668864792839629e-03 4.366000000000000089e-03 -2.852703847507800212e-04 6.785505195518915129e-04 1.894000000000000067e-03 6.603304028250965747e-03 -3.663809617117757145e-03 -3.739999999999999835e-03 -3.360829523574051484e-04 3.440148966756092683e-04 1.645999999999999894e-03 6.945223077941669113e-03 -3.516757369740828795e-03 -3.612999999999999892e-03 -7.345593520479923137e-03 5.775840703471951665e-03 4.041999999999999586e-03 -7.196767420080102395e-03 6.109215555312612171e-03 4.408999999999999725e-03 6.387077408091576384e-05 8.944056821254573819e-04 1.835999999999999958e-03 7.330925050227513409e-03 -4.245572153190513634e-03 -3.409999999999999837e-03 -3.772545952323377402e-06 -3.650681688356814062e-04 -1.000000000000000021e-03 6.495972352261292215e-03 -4.137595340128959708e-03 -3.931999999999999731e-03 -6.772376277956329051e-03 4.935922259292012913e-03 2.487000000000000061e-03 -6.680520970080288355e-03 4.774876916562092663e-03 3.252999999999999815e-03 -2.168229349923083543e-04 -2.701496156971562547e-04 -7.209999999999999612e-04 7.436159917155006800e-03 -5.077397629346871478e-03 -3.671999999999999917e-03 5.191815283725952036e-04 -3.375708217094658327e-05 -9.669999999999999776e-04 7.495323015885578359e-03 -4.701109537921436751e-03 -3.565000000000000027e-03 -6.912432993182771740e-03 4.316115743901945828e-03 2.409000000000000117e-03 -7.436224454914126293e-03 5.013366419496692594e-03 3.250999999999999984e-03 1.584335143644823008e-04 -2.372315778435058386e-04 1.599999999999999928e-05 6.627322456265144317e-03 -5.214390190682293910e-03 -3.640000000000000006e-03 -1.881928365354039662e-04 -4.681756681810351150e-04 -1.059000000000000045e-03 7.128901077397396639e-03 -4.274073283026652223e-03 -4.049999999999999781e-03 -7.575991124365693760e-03 4.247474600693008570e-03 2.576000000000000165e-03 -7.366325947825837737e-03 4.295739637173994797e-03 3.029000000000000008e-03 1.047195002074401501e-04 -2.585107856092351531e-04 -3.249999999999999851e-04 6.656662229553048267e-03 -4.987218058360976501e-03 -3.530999999999999851e-03 -2.771135470772991536e-04 4.351609840349172182e-04 6.239999999999999887e-04 6.683133332933102917e-03 -3.825467534071943718e-03 -3.102000000000000157e-03 -7.204087431558890697e-03 4.672704706960971281e-03 3.709000000000000057e-03 -7.015766134165728543e-03 4.555571923556171222e-03 4.658999999999999947e-03 -1.864832273035759282e-04 4.842643967239826418e-04 7.990000000000000140e-04 7.074317300056883959e-03 -3.422870832812109805e-03 -3.504999999999999869e-03 1.425393077274311412e-04 6.347342323780755203e-04 4.719999999999999803e-04 6.700350376561530104e-03 -3.601906416234568285e-03 -2.962999999999999922e-03 -6.625227063594508158e-03 4.876146773407758449e-03 3.838999999999999965e-03 -7.472367670364174486e-03 4.172094366010467049e-03 4.661000000000000212e-03 -1.154186310302888898e-05 6.036859990061977169e-04 9.460000000000000093e-04 6.929875785346276997e-03 -4.023526015781595140e-03 -3.616999999999999989e-03 -5.797975816988782592e-07 6.333479800510650754e-04 8.630000000000000518e-04 7.414366037502810244e-03 -3.643949678840923204e-03 -3.086000000000000201e-03 -7.180390062153819454e-03 4.693951699295878174e-03 3.706999999999999792e-03 -6.805391282794870898e-03 5.029035144842354532e-03 4.440000000000000370e-03 4.135921046354726024e-04 9.111386123873799854e-04 9.139999999999999904e-04 7.104075793772375580e-03 -3.678963456782003219e-03 -2.786999999999999981e-03 8.734164666858679161e-05 -2.182743130145506713e-05 1.242999999999999964e-03 6.914430991278617405e-03 -5.432760722399412878e-03 -3.784000000000000037e-03 -7.373289478340449600e-03 4.979319558794556046e-03 4.682999999999999663e-03 -6.459796680861103896e-03 5.227995872409986304e-03 3.887999999999999963e-03 -4.517016372379163420e-05 -1.286104828898712138e-04 4.589999999999999896e-04 7.191900190864662819e-03 -4.709330806456562407e-03 -3.501999999999999905e-03 1.141663715053635588e-04 -5.871149476294493604e-05 9.340000000000000429e-04 7.144634206880335313e-03 -4.995955869488379573e-03 -3.039000000000000035e-03 -6.495648888458999647e-03 5.357219009697229001e-03 4.648000000000000222e-03 -7.059259117883463427e-03 5.161289151615047234e-03 3.818000000000000213e-03 -2.046679899020091423e-04 -2.965552459651845220e-04 2.799999999999999755e-04 6.547010027018144475e-03 -4.478418103094424993e-03 -3.517999999999999860e-03 -2.844649722558487527e-04 -4.084947440884867311e-05 5.039999999999999992e-04 7.076476321858103484e-03 -4.751631284746491227e-03 -3.758000000000000056e-03 -7.322605638835269666e-03 5.589002384871371784e-03 4.758000000000000076e-03 -7.181002342410027980e-03 5.047155075713611813e-03 3.752000000000000127e-03 1.426353660837867171e-04 -1.376704483254999084e-04 8.299999999999999815e-05 7.410270134645668798e-03 -5.104577017890752147e-03 -3.197999999999999888e-03