-2.566162952931174246e+01 -8.221267341377858884e+01 1.609125943677613080e+01 -8.221267341377857463e+01 -1.236288666584088070e+01 1.803052761320770081e+00 1.609125943677613080e+01 1.803052761320770081e+00 3.531697827007362633e+01
-2.595400483765536492e+01 -8.218325756317724995e+01 1.614280130254724099e+01 -8.218325756317723574e+01 -1.304328214596465152e+01 1.963535240817072314e+00 1.614280130254724099e+01 1.963535240817072314e+00 3.501836931603547498e+01
-2.642544134382059795e+01 -8.214512488361260978e+01 1.618478820095229409e+01 -8.214512488361259557e+01 -1.390341767893530900e+01 2.115276179376145649e+00 1.618478820095229409e+01 2.115276179376145649e+00 3.453601972605698478e+01
-2.606024400940763996e+01 -8.210061515367873142e+01 1.624427450991839450e+01 -8.210061515367873142e+01 -1.390754235525975169e+01 2.227027245299331604e+00 1.624427450991839450e+01 2.227027245299331604e+00 3.499239009366907993e+01
-2.557641715452596998e+01 -8.204038380760756866e+01 1.629740194981284773e+01 -8.204038380760756866e+01 -1.378322015385631438e+01 2.325327616725639590e+00 1.629740194981284773e+01 2.325327616725639590e+00 3.545060597980992867e+01
