5.938999891894850003e-03 1.324000447725718135e-03 -1.444000034104934126e-03 3.805996990513526960e-03 3.792500026229538024e-02 -2.558200005889096212e-02 -2.547000108690311744e-03 1.333999805958316787e-03 -1.412999987273429311e-03 3.796999805132945677e-03 2.362000284231383172e-03 -2.940000023318237437e-03 3.018400105551976437e-02 -1.572699774141001275e-02 -2.426100015090199014e-02 1.590899798193142617e-02 2.961500124332457073e-02 4.016799988260289639e-02 1.837299902768417537e-02 1.398700140503128173e-02 1.549399988461241072e-02 2.968000057839343276e-03 -8.159997762306045108e-04 -7.020000155678479421e-04 1.306000047015900374e-03 -6.679999018611683858e-04 -6.350000065416818405e-04 -1.229000054915719816e-03 7.779999077606125852e-04 7.110000060067764999e-04 1.324999535128484158e-03 6.405000103746096886e-03 3.539999986288388037e-03 1.996999943094157626e-03 8.030001517258439142e-04 6.929999881747508179e-04 2.659998539958692457e-04 1.887000019522312375e-03 -5.960000033531614571e-04 -4.220001982536795439e-04 2.587999967627536806e-03 -4.570000002557133060e-04 3.260000377787957261e-04 -5.119999755153424028e-04 -1.710000012880481281e-04 -4.820000142565492897e-04 1.849999634982691873e-04 -4.799999752422180602e-05 -1.121309999099703442e-01 2.079915386420611652e-04 1.916000061873915014e-02 6.181008518810870989e-03 -1.114669995165080557e-01 1.603900007722353777e-02 2.521000043624645366e-03 9.220002111768126583e-04 2.053599998516347780e-02 5.746999966922209865e-03 2.082000457155776859e-03 2.253399996619772847e-02 8.990005417458766255e-04 -5.587999910451620089e-03 2.158100000061937210e-02 2.669999347038253760e-03 9.828000218279378877e-03 1.636499997544502844e-02 3.039996387426815235e-04 6.084000040884462480e-03 1.791299999224479911e-02 2.038000259334581902e-03 -1.965999825843041914e-03 2.004499999071432739e-02 -5.499999887432831204e-04 1.330999978656582233e-03 2.027600000170641514e-02 -1.584999860477246661e-03 -3.500000994159596732e-04 2.048100000909857527e-02 -5.660000168696651584e-04 1.660999976873141866e-03 1.970200000146510658e-02 -1.213999862879208734e-03 -3.170000713401533018e-04 2.049800000701774635e-02 6.953999728399202704e-03 5.111000546733409505e-03 2.082399995650966590e-02 -4.077000126770387485e-03 3.318999714139150153e-03 2.250900001918918272e-02 -4.829999329877181311e-04 5.869999836309162423e-04 2.018300000207974912e-02 3.433000216617240925e-03 -1.261999718433976349e-03 2.195199998231091645e-02 1.537200044563444279e-02 -6.967998852134105886e-03 -1.473900007789104814e-02 -8.405000178679176634e-03 3.809993372081757457e-04 -2.714999995398618624e-02 -1.142000144218494788e-03 4.179998932531559658e-04 -2.039999999411385573e-02 8.089999240317518117e-03 7.664000579266395941e-03 -3.261900005231102573e-02 -1.900000145673098146e-03 3.659998349505169191e-04 -2.137599998987786340e-02 -2.013000830566458524e-03 1.043899984032561727e-02 -7.438999999315802809e-03 4.819998574381987211e-04 3.280000151447424518e-04 -2.133300000298820470e-02 -2.074000098249300511e-03 -3.100017506068678008e-05 -1.822399998852085659e-02 -1.624000270716360579e-03 2.079999856654529775e-03 -2.054499999311341918e-02 1.087000026921238101e-03 -1.784999937347914135e-03 -1.958000000421708867e-02 -1.726000180859128558e-03 9.339998495165988037e-04 -1.996799999140567994e-02 1.015999938314953582e-03 -6.569999433139955087e-04 -2.017700000495191090e-02 -3.399992610511889344e-05 -2.281000020417357083e-03 -1.786599999753388929e-02 7.079999363808632106e-04 -6.649999670675981953e-04 -2.063700000324380363e-02 -3.100001530103909650e-05 -1.273000022535831968e-03 -2.021399999855731308e-02 5.059999341505952344e-04 -6.349999823379181728e-04 -2.063000000215875832e-02
5.932999892132781276e-03 1.321000447273934161e-03 -1.442000034068818218e-03 3.801996992713971551e-03 3.789700026200784611e-02 -2.556700005884091076e-02 -2.542000108603642127e-03 1.332999806338465909e-03 -1.410999987300029729e-03 3.788999805522136333e-03 2.357000283628339285e-03 -2.938000023269084215e-03 3.015900105452717569e-02 -1.571299774328878407e-02 -2.424900015077797663e-02 1.589499798367866729e-02 2.959000124223977804e-02 4.014199988270514274e-02 1.835499902859560883e-02 1.397400140365695140e-02 1.548099988472475229e-02 2.968000057704642432e-03 -8.139997762276079442e-04 -6.990000155698456201e-04 1.306000047242791146e-03 -6.709999018611684587e-04 -6.350000065386852141e-04 -1.225000055007909429e-03 7.789999080601369037e-04 7.080000059836982079e-04 1.319999535776037337e-03 6.396000103361952453e-03 3.533999986324976462e-03 1.989999943007487310e-03 8.040001511944342783e-04 6.909999882123909077e-04 2.649998541416099000e-04 1.885000019445683302e-03 -5.970000033456438404e-04 -4.240001979511584551e-04 2.583999967476276194e-03 -4.570000002406780781e-04 3.270000378544259535e-04 -5.129999754397121699e-04 -1.710000012925691156e-04 -4.800000141698793662e-04 1.839999636515274827e-04 -4.599999753426264182e-05 -1.120549999102910810e-01 2.109915443729798532e-04 1.914300061831664471e-02 6.175008512996733694e-03 -1.113909995169738432e-01 1.602700007718074054e-02 2.522000043704147876e-03 9.200002112394575944e-04 2.052299998515995719e-02 5.745999967007231132e-03 2.080000457068159614e-03 2.252199996620524863e-02 9.050005410619089150e-04 -5.580999910025806997e-03 2.155300000057925811e-02 2.667999347300487739e-03 9.823000218107143591e-03 1.634399997546106403e-02 2.999996387945845695e-04 6.082000040563961644e-03 1.789499999226887642e-02 2.039000259100524036e-03 -1.963999825782394848e-03 2.002999999070680798e-02 -5.479999888426405515e-04 1.330999978789862990e-03 2.025800000169537818e-02 -1.578999860349713331e-03 -3.530000989801579067e-04 2.046300000906845287e-02 -5.700000171903934001e-04 1.663999976553640027e-03 1.968500000148418888e-02 -1.217999863210976648e-03 -3.140000716616530001e-04 2.047900000703683360e-02 6.949999728445585209e-03 5.109000546411909469e-03 2.080499995653374568e-02 -4.076000126626294282e-03 3.315999714199796989e-03 2.249400001918665584e-02 -4.799999329838460470e-04 5.859999838448216088e-04 2.017000000206418953e-02 3.430000216907074656e-03 -1.266999718676848925e-03 2.193599998233247347e-02 1.536700044566756233e-02 -6.967998852506263920e-03 -1.473300007786344790e-02 -8.395000178482110720e-03 3.799993379864536626e-04 -2.712799995404038475e-02 -1.139000144390187128e-03 4.209998934900354567e-04 -2.038999999413340994e-02 8.083999240973886377e-03 7.657000578835589447e-03 -3.259600005227090980e-02 -1.905000145654890936e-03 3.669998345893465399e-04 -2.135899998985126350e-02 -2.001000830343440014e-03 1.043699984124616363e-02 -7.425999999380043098e-03 4.889998577219357382e-04 3.260000156981273235e-04 -2.130900000302484582e-02 -2.068000097919180102e-03 -3.500017460191083443e-05 -1.821899998854997760e-02 -1.623000270541373035e-03 2.078999856748139658e-03 -2.052699999311793921e-02 1.089000026620364674e-03 -1.779999937182669351e-03 -1.956600000423312086e-02 -1.726000180997701739e-03 9.369998495325807756e-04 -1.995199999140867889e-02 1.015999938338680696e-03 -6.559999432960156177e-04 -2.015900000495290945e-02 -3.799992728760372417e-05 -2.265000020714883454e-03 -1.786099999752778847e-02 7.079999363880307628e-04 -6.639999670526149306e-04 -2.062200000324480517e-02 -3.300001514813085334e-05 -1.274000022673107925e-03 -2.019999999854527398e-02 5.039999343846535097e-04 -6.369999824741953871e-04 -2.061500000214572595e-02
5.930999892138300901e-03 1.321000447123672631e-03 -1.441000034057778739e-03 3.799996995270489217e-03 3.786400026186757806e-02 -2.555600005879690717e-02 -2.542000108603642127e-03 1.332999806338465909e-03 -1.410999987300029729e-03 3.788999805527656223e-03 2.357000283629338052e-03 -2.937000023269084083e-03 3.013500105368584897e-02 -1.570099774509191998e-02 -2.423700015065748808e-02 1.587999798547006652e-02 2.956500124108734501e-02 4.012399988281291352e-02 1.834399902934086973e-02 1.396400140282302166e-02 1.547899988479545935e-02 2.967000057774752449e-03 -8.149997763042369928e-04 -7.000000155633268788e-04 1.305000047167160756e-03 -6.699999019367986917e-04 -6.350000065341641995e-04 -1.225000055083539686e-03 7.799999080601369280e-04 7.080000059826993325e-04 1.319999535560186128e-03 6.399000103363950386e-03 3.535999986321980426e-03 1.992999942937377124e-03 8.050001514223239498e-04 6.919999881948324947e-04 2.629998540659796483e-04 1.886000019294422920e-03 -5.970000033356030441e-04 -4.220001979511585149e-04 2.583999967627536708e-03 -4.570000002517178041e-04 3.290000378544258937e-04 -5.129999752884516553e-04 -1.710000013036088416e-04 -4.810000142510294295e-04 1.849999635748983472e-04 -4.699999752974165826e-05 -1.120339999104202483e-01 2.129915459652107520e-04 1.914700061819872914e-02 6.178008511722059282e-03 -1.113739995167449537e-01 1.602900007714720340e-02 2.522000043552887361e-03 9.220002112394575346e-04 2.052299998515795879e-02 5.749999967271112594e-03 2.076000457363688743e-03 2.251499996618716234e-02 9.090005411264994893e-04 -5.581999909725283635e-03 2.155100000055817921e-02 2.667999347009006490e-03 9.827000218109142524e-03 1.634599997545706576e-02 3.029996383463228805e-04 6.088000040791851329e-03 1.789599999224632254e-02 2.039000259089484256e-03 -1.963999825784392816e-03 2.002799999070680945e-02 -5.479999888702397851e-04 1.330999978784868504e-03 2.025300000169537665e-02 -1.576999860349713282e-03 -3.530000988288973921e-04 2.046300000905741309e-02 -5.690000171959132659e-04 1.663999976628271300e-03 1.968400000147866799e-02 -1.218999863297646601e-03 -3.130000717392810382e-04 2.047700000704135229e-02 6.949999728137544290e-03 5.113000546410910799e-03 2.080399995652974787e-02 -4.074000126972974166e-03 3.319999714343066597e-03 2.248600001917162167e-02 -4.789999330059254204e-04 5.859999839164563643e-04 2.016600000205866910e-02 3.432000216803844997e-03 -1.265999718530582980e-03 2.193099998232043296e-02 1.536500044523033889e-02 -6.961998852654528204e-03 -1.473000007785840205e-02 -8.390000178919332363e-03 3.859993383676015044e-04 -2.712499995407397987e-02 -1.137000144211327115e-03 4.189998936462903541e-04 -2.038499999414245326e-02 8.086999241292969209e-03 7.653000579065477073e-03 -3.259300005228347313e-02 -1.904000145832102997e-03 3.699998346739666951e-04 -2.134999998985977893e-02 -1.990000830817652971e-03 1.044399984208808571e-02 -7.415999999447753233e-03 4.959998575226442618e-04 3.290000162325334662e-04 -2.130400000306647765e-02 -2.057000097524469637e-03 -4.000017376698135736e-05 -1.821599998860570085e-02 -1.623000270589403842e-03 2.079999856753134060e-03 -2.052199999311893688e-02 1.088000026393473986e-03 -1.776999937258299644e-03 -1.956600000423059857e-02 -1.723000181224592330e-03 9.399998497594715119e-04 -1.995199999142823269e-02 1.015999938117309815e-03 -6.529999432950167777e-04 -2.015800000495590605e-02 -3.899992820620651422e-05 -2.253000020792511604e-03 -1.786299999753425752e-02 7.079999363399998476e-04 -6.629999670476205290e-04 -2.061700000324580284e-02 -3.200001527731194579e-05 -1.272000022593482117e-03 -2.019599999855279174e-02 5.039999343145431425e-04 -6.359999824731964874e-04 -2.061400000214672068e-02
5.922999892289561655e-03 1.319000446518630741e-03 -1.441000034011622084e-03 3.795997000259861316e-03 3.780000026159201915e-02 -2.552900005871090033e-02 -2.540000108441342001e-03 1.330999806491724126e-03 -1.408999987309071710e-03 3.784999805846737259e-03 2.353000283329813661e-03 -2.934000023243009490e-03 3.008600105186850365e-02 -1.567499774877083307e-02 -2.421000015041298303e-02 1.585599798915444253e-02 2.951300123922726698e-02 4.007899988299732513e-02 1.831399903075411895e-02 1.394400140053613478e-02 1.546099988498103421e-02 2.965000057710162357e-03 -8.139997764534998405e-04 -6.980000155532861423e-04 1.304000047242791097e-03 -6.709999020124289733e-04 -6.350000065276454339e-04 -1.224000055229280395e-03 7.819999081367661094e-04 7.090000059751817157e-04 1.318999536218779184e-03 6.390000103284324516e-03 3.531999986336489990e-03 1.988999942937377027e-03 8.050001511198029208e-04 6.919999882169119466e-04 2.649998542983902504e-04 1.883000019446682020e-03 -5.960000033436460651e-04 -4.210001976541572974e-04 2.579999967702168318e-03 -4.580000002532421625e-04 3.260000379355761308e-04 -5.139999755143435760e-04 -1.700000012860503800e-04 -4.800000141809190380e-04 1.839999636495297046e-04 -4.799999753426264300e-05 -1.119739999106692391e-01 2.159915504990306777e-04 1.914300061786454107e-02 6.180008507167683574e-03 -1.113139995165966789e-01 1.602600007707622939e-02 2.522000043287358009e-03 9.250002112324654793e-04 2.051599998515496459e-02 5.751999967210394936e-03 2.076000457503961519e-03 2.250399996617612197e-02 9.110005408388903003e-04 -5.578999909585010894e-03 2.154000000054414471e-02 2.671999346922336333e-03 9.828000218409663549e-03 1.634399997543398847e-02 3.049996382541330557e-04 6.089000040940115675e-03 1.789299999223428403e-02 2.040000258883025407e-03 -1.961999825718751048e-03 2.001799999069929156e-02 -5.469999889789891418e-04 1.331999978854505641e-03 2.024700000168885849e-02 -1.578999860463982602e-03 -3.520000989871500106e-04 2.045600000906745361e-02 -5.690000172936229752e-04 1.664999976624275931e-03 1.968000000147766826e-02 -1.217999863325245919e-03 -3.130000716686451583e-04 2.047200000703583433e-02 6.951999727855455100e-03 5.116000546552182740e-03 2.079399995651571090e-02 -4.073000127255064357e-03 3.322999714408708064e-03 2.247600001916310458e-02 -4.789999330500842702e-04 5.859999839084653606e-04 2.015800000205866804e-02 3.436000216700615603e-03 -1.264999718233056304e-03 2.192599998229735614e-02 1.536400044465289529e-02 -6.953998852725163347e-03 -1.472500007786087250e-02 -8.384000179102065603e-03 3.889993388293740703e-04 -2.711699995411009229e-02 -1.134000144248318393e-03 4.199998938801733327e-04 -2.037799999416001206e-02 8.088999241645168647e-03 7.649000579225727695e-03 -3.258400005229052099e-02 -1.911000146289756505e-03 3.769998341575402827e-04 -2.133699998982813151e-02 -1.970000831636898198e-03 1.045599984361667185e-02 -7.399999999570137585e-03 5.109998569948800539e-04 3.370000173809716134e-04 -2.129000000315726601e-02 -2.039000096882436115e-03 -4.900017241262882286e-05 -1.822299998869606960e-02 -1.623000270713065123e-03 2.081999856758128594e-03 -2.051699999312093722e-02 1.085000026048441859e-03 -1.771999937479197366e-03 -1.956000000421903584e-02 -1.718000181401804294e-03 9.429998501466128587e-04 -1.994299999145882768e-02 1.018999937988128825e-03 -6.509999430641304555e-04 -2.015400000497446359e-02 -3.899992990319131814e-05 -2.231000020798504756e-03 -1.786899999755623206e-02 7.049999362218584923e-04 -6.609999672685181078e-04 -2.061100000323124251e-02 -3.100001547660345962e-05 -1.269000022512857626e-03 -2.019099999856131117e-02 5.059999341207715431e-04 -6.329999823159427556e-04 -2.060800000216075900e-02
5.910999892575522288e-03 1.315000445608070822e-03 -1.444000033941388299e-03 3.788997008065760844e-03 3.770000026110655739e-02 -2.548500005857237682e-02 -2.541000107825259861e-03 1.322999806418091642e-03 -1.406999987295560767e-03 3.772999805667877002e-03 2.355000282417256136e-03 -2.939000023178769006e-03 3.000200104863238668e-02 -1.562899775507982369e-02 -2.416600014999526272e-02 1.581899799445523822e-02 2.943700123634804267e-02 3.999799988327747829e-02 1.825399903277076172e-02 1.391500139596635495e-02 1.542899988534119152e-02 2.966000057590372462e-03 -8.129997763858605626e-04 -7.060000155598047770e-04 1.302000047231751268e-03 -6.709999021656872387e-04 -6.370000065166057024e-04 -1.222000054721948106e-03 7.749999082840310603e-04 7.050000059711341834e-04 1.316999537762855634e-03 6.369000103125072379e-03 3.523999986368505852e-03 1.987999942273264032e-03 8.140001510471692918e-04 6.949999882134418137e-04 2.639998549183441841e-04 1.874000019360064348e-03 -6.070000033291363464e-04 -4.210001975084166187e-04 2.577999967701169719e-03 -4.590000002512443817e-04 3.250000382325772454e-04 -5.179999755909726975e-04 -1.710000012765350394e-04 -4.820000142731088516e-04 1.849999634952725609e-04 -5.099999752422180440e-05 -1.118829999116595780e-01 2.279915573664009504e-04 1.912800061735024648e-02 6.179008500565771715e-03 -1.112269995166763198e-01 1.602200007699484952e-02 2.522000042918598733e-03 9.290002112204789626e-04 2.050399998515096966e-02 5.749999967063005625e-03 2.077000457339715431e-03 2.249099996618616343e-02 9.150005404590913407e-04 -5.574999909296474675e-03 2.152600000051806822e-02 2.676999347306007956e-03 9.823000218788815324e-03 1.634499997541138255e-02 2.979996382745647840e-04 6.088000040400713686e-03 1.788299999227392287e-02 2.047000258875857591e-03 -1.962999825204322403e-03 2.000299999066165041e-02 -5.479999890286678518e-04 1.331999978769885613e-03 2.023800000169437632e-02 -1.581999860238739565e-03 -3.560000992280250819e-04 2.044200000908800996e-02 -5.680000173173501733e-04 1.663999976681926297e-03 1.966200000147314692e-02 -1.208999863710564756e-03 -3.090000710029559318e-04 2.045700000698215740e-02 6.955999727761618366e-03 5.116000546837722561e-03 2.077699995649363515e-02 -4.068000127553712819e-03 3.325999714773873826e-03 2.246300001913250841e-02 -4.789999336788534966e-04 5.929999838904855556e-04 2.014000000205167992e-02 3.438000216584699044e-03 -1.264999718102772282e-03 2.190499998228631617e-02 1.536800044370282073e-02 -6.940998852416649725e-03 -1.471900007789593741e-02 -8.375000179268237907e-03 3.919993395210340345e-04 -2.710599995416277178e-02 -1.130000144069458548e-03 4.179998941876887446e-04 -2.037299999418009169e-02 8.084999241652335994e-03 7.650000578938189605e-03 -3.256900005226943950e-02 -1.921000147044411117e-03 3.879998334152219629e-04 -2.132299998978392369e-02 -1.941000832651562950e-03 1.046999984581794239e-02 -7.391999999744196942e-03 5.299998565979447763e-04 3.440000188419195201e-04 -2.126600000326913861e-02 -2.014000095954442040e-03 -6.200017053186112302e-05 -1.823299998882108031e-02 -1.624000270453055143e-03 2.078999856688491625e-03 -2.051099999311242067e-02 1.081000025795599310e-03 -1.767999937772728744e-03 -1.955100000420094755e-02 -1.712000181189825493e-03 9.409998506113819838e-04 -1.993199999148994803e-02 1.024999938085838572e-03 -6.519999426063534343e-04 -2.015000000500658667e-02 -3.399993262752833026e-05 -2.196000020434337851e-03 -1.788299999761879325e-02 6.989999357310855595e-04 -6.539999677153074615e-04 -2.060400000320511404e-02 -3.300001587518644220e-05 -1.263000022654129457e-03 -2.018099999855626353e-02 5.109999340357490724e-04 -6.309999819258050235e-04 -2.059600000219035526e-02
5.880999891522219365e-03 1.329000443340161994e-03 -1.443000033789777021e-03 3.785997018406097540e-03 3.756700026093061362e-02 -2.543400005842296266e-02 -2.531000108350799516e-03 1.328999807161409087e-03 -1.419999987356752695e-03 3.752999807045781250e-03 2.337000280907647505e-03 -2.936000023050391698e-03 2.989700104471007189e-02 -1.557399776297804968e-02 -2.412300014947061505e-02 1.577199800300870675e-02 2.931500123267155589e-02 3.987599988365878034e-02 1.818999903656776454e-02 1.386100139107407717e-02 1.537699988574840228e-02 2.954000058053546374e-03 -8.199997773054101087e-04 -7.180000154865743677e-04 1.309000046896111177e-03 -6.669999016422685934e-04 -6.430000065592402555e-04 -1.215000055214368602e-03 7.809999088064507704e-04 6.980000059265019634e-04 1.330999538711281991e-03 6.355000104163920083e-03 3.503999986305212679e-03 1.980999941989526961e-03 8.160001504937844201e-04 6.709999882500831438e-04 2.509998556950785017e-04 1.863000018366882306e-03 -6.170000032463906050e-04 -4.160001977849860631e-04 2.580999968070330549e-03 -4.680000002818402978e-04 3.270000375171380844e-04 -5.099999754596898230e-04 -1.910000012955657403e-04 -4.790000141345357606e-04 1.819999637061813066e-04 -6.699999753778474257e-05 -1.117739999117959293e-01 2.289915655991113866e-04 1.911700061674758214e-02 6.179008492147086695e-03 -1.111169995166942787e-01 1.600400007688497148e-02 2.525000042245670404e-03 9.360002114213989257e-04 2.047799998512741734e-02 5.753999966534170500e-03 2.081000457601282772e-03 2.244999996616009116e-02 9.160005400500453041e-04 -5.571999909253806151e-03 2.149300000050955242e-02 2.679999347297192924e-03 9.821000218986736599e-03 1.631599997539682351e-02 3.049996371699346238e-04 6.101000040908151519e-03 1.786099999222229631e-02 2.045000258769332294e-03 -1.963999825388546266e-03 1.996999999067369108e-02 -5.489999890374831987e-04 1.329999978665287810e-03 2.020900000170189684e-02 -1.577999860620186079e-03 -3.530000989534726554e-04 2.041400000906293602e-02 -5.610000181785299456e-04 1.673999977192359382e-03 1.964300000142452096e-02 -1.212999863832001785e-03 -3.090000713274522752e-04 2.043500000700423577e-02 6.955999727428201912e-03 5.118000546804759611e-03 2.074399995649163497e-02 -4.066000128005269748e-03 3.329999714898164691e-03 2.243600001911747605e-02 -4.729999337892506648e-04 5.929999843242895899e-04 2.012000000201855793e-02 3.444000216668073253e-03 -1.267999717674961465e-03 2.187899998225619272e-02 1.536000044278973756e-02 -6.928998853022690259e-03 -1.472000007786376623e-02 -8.371000179602228891e-03 3.969993398315460804e-04 -2.709799995418984281e-02 -1.123000143534527012e-03 4.109998947180994134e-04 -2.037199999421174246e-02 8.095999242707287852e-03 7.637000579783107500e-03 -3.255600005231717303e-02 -1.933000147884088261e-03 4.009998325336295742e-04 -2.129699998973066943e-02 -1.901000833826880284e-03 1.048699984886312941e-02 -7.371999999981972834e-03 5.509998555849276005e-04 3.590000204521302221e-04 -2.124400000340003619e-02 -1.969000094805075946e-03 -7.800016713948711784e-05 -1.824399998905349221e-02 -1.625000270565676560e-03 2.080999856619853219e-03 -2.050399999310889912e-02 1.076000025035424605e-03 -1.756999938137894599e-03 -1.953800000418433672e-02 -1.708000182005198772e-03 9.519998509168996897e-04 -1.992899999152301579e-02 1.027999936746573249e-03 -6.339999423754672653e-04 -2.014600000504112448e-02 -3.199993594586767289e-05 -2.153000020295064206e-03 -1.789499999767278637e-02 6.979999357697246574e-04 -6.539999677839455905e-04 -2.059700000319959409e-02 -3.300001602092710051e-05 -1.261000022653130425e-03 -2.017999999855826093e-02 5.109999345116100680e-04 -6.369999819218094507e-04 -2.059200000218435953e-02
