-4.702366621200000054e+02
-4.702366626900000028e+02
-4.702366638099999818e+02
-4.702366655199999741e+02
-4.702366678500000035e+02
-4.702366708299999800e+02
