-4.702363221100000032e+02
-4.702363227600000073e+02
-4.702363240299999916e+02
-4.702363259900000116e+02
-4.702363286699999776e+02
-4.702363320000000044e+02
