9.006681190000000115e+00 0.000000000000000000e+00 0.000000000000000000e+00 0.000000000000000000e+00 1.642108435000000100e+01 0.000000000000000000e+00 0.000000000000000000e+00 0.000000000000000000e+00 2.205453377999999987e+01
9.006681190000000115e+00 0.000000000000000000e+00 0.000000000000000000e+00 0.000000000000000000e+00 1.642108435000000100e+01 0.000000000000000000e+00 0.000000000000000000e+00 0.000000000000000000e+00 2.205453377999999987e+01
9.006681190000000115e+00 0.000000000000000000e+00 0.000000000000000000e+00 0.000000000000000000e+00 1.642108435000000100e+01 0.000000000000000000e+00 0.000000000000000000e+00 0.000000000000000000e+00 2.205453377999999987e+01
9.006681190000000115e+00 0.000000000000000000e+00 0.000000000000000000e+00 0.000000000000000000e+00 1.642108435000000100e+01 0.000000000000000000e+00 0.000000000000000000e+00 0.000000000000000000e+00 2.205453377999999987e+01
9.006681190000000115e+00 0.000000000000000000e+00 0.000000000000000000e+00 0.000000000000000000e+00 1.642108435000000100e+01 0.000000000000000000e+00 0.000000000000000000e+00 0.000000000000000000e+00 2.205453377999999987e+01
