1.299999999999999886e-04 7.990000000000000574e-03 4.955230000000000246e+00 1.501239999999999908e+00 2.744829999999999881e+00 4.955230000000000246e+00 1.299999999999999886e-04 3.641080000000000094e+00 2.367469999999999963e+00 1.501239999999999908e+00 9.042299999999999782e-01 2.367459999999999898e+00 3.002359999999999918e+00 7.990000000000000574e-03 4.955230000000000246e+00 4.503470000000000084e+00 2.744829999999999881e+00 4.955230000000000246e+00 3.002359999999999918e+00 3.641080000000000094e+00 2.367469999999999963e+00 4.503470000000000084e+00 9.042299999999999782e-01 2.367459999999999898e+00 6.004579999999999806e+00 7.990000000000000574e-03 4.955230000000000246e+00 7.505700000000000038e+00 2.744829999999999881e+00 4.955230000000000246e+00 6.004579999999999806e+00 3.641080000000000094e+00 2.367469999999999963e+00 7.505700000000000038e+00 9.042299999999999782e-01 2.367459999999999898e+00 1.299999999999999886e-04 5.481679999999999886e+00 4.955230000000000246e+00 1.501239999999999908e+00 8.218529999999999447e+00 4.955230000000000246e+00 1.299999999999999886e-04 9.114779999999999660e+00 2.367469999999999963e+00 1.501239999999999908e+00 6.377930000000000099e+00 2.367459999999999898e+00 3.002359999999999918e+00 5.481679999999999886e+00 4.955230000000000246e+00 4.503470000000000084e+00 8.218529999999999447e+00 4.955230000000000246e+00 3.002359999999999918e+00 9.114779999999999660e+00 2.367469999999999963e+00 4.503470000000000084e+00 6.377930000000000099e+00 2.367459999999999898e+00 6.004579999999999806e+00 5.481679999999999886e+00 4.955230000000000246e+00 7.505700000000000038e+00 8.218529999999999447e+00 4.955230000000000246e+00 6.004579999999999806e+00 9.114779999999999660e+00 2.367469999999999963e+00 7.505700000000000038e+00 6.377930000000000099e+00 2.367459999999999898e+00 1.299999999999999886e-04 1.095537999999999990e+01 4.955230000000000246e+00 1.501239999999999908e+00 1.369222000000000072e+01 4.955230000000000246e+00 1.299999999999999886e-04 1.458846999999999916e+01 2.367469999999999963e+00 1.501239999999999908e+00 1.185162000000000049e+01 2.367459999999999898e+00 3.002359999999999918e+00 1.095537999999999990e+01 4.955230000000000246e+00 4.503470000000000084e+00 1.369222000000000072e+01 4.955230000000000246e+00 3.002359999999999918e+00 1.458846999999999916e+01 2.367469999999999963e+00 4.503470000000000084e+00 1.185162000000000049e+01 2.367459999999999898e+00 6.004579999999999806e+00 1.095537999999999990e+01 4.955230000000000246e+00 7.505700000000000038e+00 1.369222000000000072e+01 4.955230000000000246e+00 6.004579999999999806e+00 1.458846999999999916e+01 2.367469999999999963e+00 7.505700000000000038e+00 1.185162000000000049e+01 2.367459999999999898e+00 1.299999999999999886e-04 7.990000000000000574e-03 1.230673999999999957e+01 1.501239999999999908e+00 2.744829999999999881e+00 1.230673999999999957e+01 1.299999999999999886e-04 3.641080000000000094e+00 9.718980000000000175e+00 1.501239999999999908e+00 9.042299999999999782e-01 9.718980000000000175e+00 3.002359999999999918e+00 7.990000000000000574e-03 1.230673999999999957e+01 4.503470000000000084e+00 2.744829999999999881e+00 1.230673999999999957e+01 3.002359999999999918e+00 3.641080000000000094e+00 9.718980000000000175e+00 4.503470000000000084e+00 9.042299999999999782e-01 9.718980000000000175e+00 6.004579999999999806e+00 7.990000000000000574e-03 1.230673999999999957e+01 7.505700000000000038e+00 2.744829999999999881e+00 1.230673999999999957e+01 6.004579999999999806e+00 3.641080000000000094e+00 9.718980000000000175e+00 7.505700000000000038e+00 9.042299999999999782e-01 9.718980000000000175e+00 1.299999999999999886e-04 5.481679999999999886e+00 1.230673999999999957e+01 1.501239999999999908e+00 8.218529999999999447e+00 1.230673999999999957e+01 1.299999999999999886e-04 9.114779999999999660e+00 9.718980000000000175e+00 1.501239999999999908e+00 6.377930000000000099e+00 9.718980000000000175e+00 3.002359999999999918e+00 5.481679999999999886e+00 1.230673999999999957e+01 4.503470000000000084e+00 8.218529999999999447e+00 1.230673999999999957e+01 3.002359999999999918e+00 9.114779999999999660e+00 9.718980000000000175e+00 4.503470000000000084e+00 6.377930000000000099e+00 9.718980000000000175e+00 6.004579999999999806e+00 5.481679999999999886e+00 1.230673999999999957e+01 7.505700000000000038e+00 8.218529999999999447e+00 1.230673999999999957e+01 6.004579999999999806e+00 9.114779999999999660e+00 9.718980000000000175e+00 7.505700000000000038e+00 6.377930000000000099e+00 9.718980000000000175e+00 1.299999999999999886e-04 1.095537999999999990e+01 1.230673999999999957e+01 1.501239999999999908e+00 1.369222000000000072e+01 1.230673999999999957e+01 1.299999999999999886e-04 1.458846999999999916e+01 9.718980000000000175e+00 1.501239999999999908e+00 1.185162000000000049e+01 9.718980000000000175e+00 3.002359999999999918e+00 1.095537999999999990e+01 1.230673999999999957e+01 4.503470000000000084e+00 1.369222000000000072e+01 1.230673999999999957e+01 3.002359999999999918e+00 1.458846999999999916e+01 9.718980000000000175e+00 4.503470000000000084e+00 1.185162000000000049e+01 9.718980000000000175e+00 6.004579999999999806e+00 1.095537999999999990e+01 1.230673999999999957e+01 7.505700000000000038e+00 1.369222000000000072e+01 1.230673999999999957e+01 6.004579999999999806e+00 1.458846999999999916e+01 9.718980000000000175e+00 7.505700000000000038e+00 1.185162000000000049e+01 9.718980000000000175e+00 1.299999999999999886e-04 7.990000000000000574e-03 1.965824999999999889e+01 1.501239999999999908e+00 2.744829999999999881e+00 1.965824999999999889e+01 1.299999999999999886e-04 3.641080000000000094e+00 1.707048999999999950e+01 1.501239999999999908e+00 9.042299999999999782e-01 1.707048999999999950e+01 3.002359999999999918e+00 7.990000000000000574e-03 1.965824999999999889e+01 4.503470000000000084e+00 2.744829999999999881e+00 1.965824999999999889e+01 3.002359999999999918e+00 3.641080000000000094e+00 1.707048999999999950e+01 4.503470000000000084e+00 9.042299999999999782e-01 1.707048999999999950e+01 6.004579999999999806e+00 7.990000000000000574e-03 1.965824999999999889e+01 7.505700000000000038e+00 2.744829999999999881e+00 1.965824999999999889e+01 6.004579999999999806e+00 3.641080000000000094e+00 1.707048999999999950e+01 7.505700000000000038e+00 9.042299999999999782e-01 1.707048999999999950e+01 1.299999999999999886e-04 5.481679999999999886e+00 1.965824999999999889e+01 1.501239999999999908e+00 8.218529999999999447e+00 1.965824999999999889e+01 1.299999999999999886e-04 9.114779999999999660e+00 1.707048999999999950e+01 1.501239999999999908e+00 6.377930000000000099e+00 1.707048999999999950e+01 3.002359999999999918e+00 5.481679999999999886e+00 1.965824999999999889e+01 4.503470000000000084e+00 8.218529999999999447e+00 1.965824999999999889e+01 3.002359999999999918e+00 9.114779999999999660e+00 1.707048999999999950e+01 4.503470000000000084e+00 6.377930000000000099e+00 1.707048999999999950e+01 6.004579999999999806e+00 5.481679999999999886e+00 1.965824999999999889e+01 7.505700000000000038e+00 8.218529999999999447e+00 1.965824999999999889e+01 6.004579999999999806e+00 9.114779999999999660e+00 1.707048999999999950e+01 7.505700000000000038e+00 6.377930000000000099e+00 1.707048999999999950e+01 1.299999999999999886e-04 1.095537999999999990e+01 1.965824999999999889e+01 1.501239999999999908e+00 1.369222000000000072e+01 1.965824999999999889e+01 1.299999999999999886e-04 1.458846999999999916e+01 1.707048999999999950e+01 1.501239999999999908e+00 1.185162000000000049e+01 1.707048999999999950e+01 3.002359999999999918e+00 1.095537999999999990e+01 1.965824999999999889e+01 4.503470000000000084e+00 1.369222000000000072e+01 1.965824999999999889e+01 3.002359999999999918e+00 1.458846999999999916e+01 1.707048999999999950e+01 4.503470000000000084e+00 1.185162000000000049e+01 1.707048999999999950e+01 6.004579999999999806e+00 1.095537999999999990e+01 1.965824999999999889e+01 7.505700000000000038e+00 1.369222000000000072e+01 1.965824999999999889e+01 6.004579999999999806e+00 1.458846999999999916e+01 1.707048999999999950e+01 7.505700000000000038e+00 1.185162000000000049e+01 1.707048999999999950e+01 1.200000000000000030e-04 1.824510000000000076e+00 3.661439999999999806e+00 1.200000000000000030e-04 3.676429999999999865e+00 6.022289999999999921e+00 1.501239999999999908e+00 2.709449999999999914e+00 1.300440000000000040e+00 1.200000000000000030e-04 5.446279999999999788e+00 1.300450000000000106e+00 1.501230000000000064e+00 4.561350000000000016e+00 3.661439999999999806e+00 1.501239999999999908e+00 9.395799999999999708e-01 6.022289999999999921e+00 3.002339999999999787e+00 1.824510000000000076e+00 3.661439999999999806e+00 3.002349999999999852e+00 3.676429999999999865e+00 6.022289999999999921e+00 4.503459999999999575e+00 2.709449999999999914e+00 1.300440000000000040e+00 3.002349999999999852e+00 5.446279999999999788e+00 1.300450000000000106e+00 4.503459999999999575e+00 4.561350000000000016e+00 3.661439999999999806e+00 4.503459999999999575e+00 9.395799999999999708e-01 6.022289999999999921e+00 6.004570000000000185e+00 1.824510000000000076e+00 3.661439999999999806e+00 6.004579999999999806e+00 3.676429999999999865e+00 6.022289999999999921e+00 7.505690000000000417e+00 2.709449999999999914e+00 1.300440000000000040e+00 6.004579999999999806e+00 5.446279999999999788e+00 1.300450000000000106e+00 7.505679999999999907e+00 4.561350000000000016e+00 3.661439999999999806e+00 7.505690000000000417e+00 9.395799999999999708e-01 6.022289999999999921e+00 1.200000000000000030e-04 7.298210000000000086e+00 3.661439999999999806e+00 1.200000000000000030e-04 9.150119999999999365e+00 6.022289999999999921e+00 1.501239999999999908e+00 8.183149999999999480e+00 1.300440000000000040e+00 1.200000000000000030e-04 1.091998000000000069e+01 1.300450000000000106e+00 1.501230000000000064e+00 1.003505000000000003e+01 3.661439999999999806e+00 1.501239999999999908e+00 6.413280000000000314e+00 6.022289999999999921e+00 3.002339999999999787e+00 7.298210000000000086e+00 3.661439999999999806e+00 3.002349999999999852e+00 9.150119999999999365e+00 6.022289999999999921e+00 4.503459999999999575e+00 8.183149999999999480e+00 1.300440000000000040e+00 3.002349999999999852e+00 1.091998000000000069e+01 1.300450000000000106e+00 4.503459999999999575e+00 1.003505000000000003e+01 3.661439999999999806e+00 4.503459999999999575e+00 6.413280000000000314e+00 6.022289999999999921e+00 6.004570000000000185e+00 7.298210000000000086e+00 3.661439999999999806e+00 6.004579999999999806e+00 9.150119999999999365e+00 6.022289999999999921e+00 7.505690000000000417e+00 8.183149999999999480e+00 1.300440000000000040e+00 6.004579999999999806e+00 1.091998000000000069e+01 1.300450000000000106e+00 7.505679999999999907e+00 1.003505000000000003e+01 3.661439999999999806e+00 7.505690000000000417e+00 6.413280000000000314e+00 6.022289999999999921e+00 1.200000000000000030e-04 1.277190000000000047e+01 3.661439999999999806e+00 1.200000000000000030e-04 1.462382000000000026e+01 6.022289999999999921e+00 1.501239999999999908e+00 1.365684000000000076e+01 1.300440000000000040e+00 1.200000000000000030e-04 1.639367000000000019e+01 1.300450000000000106e+00 1.501230000000000064e+00 1.550873999999999953e+01 3.661439999999999806e+00 1.501239999999999908e+00 1.188696999999999981e+01 6.022289999999999921e+00 3.002339999999999787e+00 1.277190000000000047e+01 3.661439999999999806e+00 3.002349999999999852e+00 1.462382000000000026e+01 6.022289999999999921e+00 4.503459999999999575e+00 1.365684000000000076e+01 1.300440000000000040e+00 3.002349999999999852e+00 1.639367000000000019e+01 1.300450000000000106e+00 4.503459999999999575e+00 1.550873999999999953e+01 3.661439999999999806e+00 4.503459999999999575e+00 1.188696999999999981e+01 6.022289999999999921e+00 6.004570000000000185e+00 1.277190000000000047e+01 3.661439999999999806e+00 6.004579999999999806e+00 1.462382000000000026e+01 6.022289999999999921e+00 7.505690000000000417e+00 1.365684000000000076e+01 1.300440000000000040e+00 6.004579999999999806e+00 1.639367000000000019e+01 1.300450000000000106e+00 7.505679999999999907e+00 1.550873999999999953e+01 3.661439999999999806e+00 7.505690000000000417e+00 1.188696999999999981e+01 6.022289999999999921e+00 1.200000000000000030e-04 1.824510000000000076e+00 1.101295000000000002e+01 1.200000000000000030e-04 3.676429999999999865e+00 1.337379999999999924e+01 1.501239999999999908e+00 2.709449999999999914e+00 8.651960000000000761e+00 1.200000000000000030e-04 5.446279999999999788e+00 8.651960000000000761e+00 1.501230000000000064e+00 4.561350000000000016e+00 1.101295000000000002e+01 1.501239999999999908e+00 9.395799999999999708e-01 1.337379999999999924e+01 3.002339999999999787e+00 1.824510000000000076e+00 1.101295000000000002e+01 3.002349999999999852e+00 3.676429999999999865e+00 1.337379999999999924e+01 4.503459999999999575e+00 2.709449999999999914e+00 8.651960000000000761e+00 3.002349999999999852e+00 5.446279999999999788e+00 8.651960000000000761e+00 4.503459999999999575e+00 4.561350000000000016e+00 1.101295000000000002e+01 4.503459999999999575e+00 9.395799999999999708e-01 1.337379999999999924e+01 6.004570000000000185e+00 1.824510000000000076e+00 1.101295000000000002e+01 6.004579999999999806e+00 3.676429999999999865e+00 1.337379999999999924e+01 7.505690000000000417e+00 2.709449999999999914e+00 8.651960000000000761e+00 6.004579999999999806e+00 5.446279999999999788e+00 8.651960000000000761e+00 7.505679999999999907e+00 4.561350000000000016e+00 1.101295000000000002e+01 7.505690000000000417e+00 9.395799999999999708e-01 1.337379999999999924e+01 1.200000000000000030e-04 7.298210000000000086e+00 1.101295000000000002e+01 1.200000000000000030e-04 9.150119999999999365e+00 1.337379999999999924e+01 1.501239999999999908e+00 8.183149999999999480e+00 8.651960000000000761e+00 1.200000000000000030e-04 1.091998000000000069e+01 8.651960000000000761e+00 1.501230000000000064e+00 1.003505000000000003e+01 1.101295000000000002e+01 1.501239999999999908e+00 6.413280000000000314e+00 1.337379999999999924e+01 3.002339999999999787e+00 7.298210000000000086e+00 1.101295000000000002e+01 3.002349999999999852e+00 9.150119999999999365e+00 1.337379999999999924e+01 4.503459999999999575e+00 8.183149999999999480e+00 8.651960000000000761e+00 3.002349999999999852e+00 1.091998000000000069e+01 8.651960000000000761e+00 4.503459999999999575e+00 1.003505000000000003e+01 1.101295000000000002e+01 4.503459999999999575e+00 6.413280000000000314e+00 1.337379999999999924e+01 6.004570000000000185e+00 7.298210000000000086e+00 1.101295000000000002e+01 6.004579999999999806e+00 9.150119999999999365e+00 1.337379999999999924e+01 7.505690000000000417e+00 8.183149999999999480e+00 8.651960000000000761e+00 6.004579999999999806e+00 1.091998000000000069e+01 8.651960000000000761e+00 7.505679999999999907e+00 1.003505000000000003e+01 1.101295000000000002e+01 7.505690000000000417e+00 6.413280000000000314e+00 1.337379999999999924e+01 1.200000000000000030e-04 1.277190000000000047e+01 1.101295000000000002e+01 1.200000000000000030e-04 1.462382000000000026e+01 1.337379999999999924e+01 1.501239999999999908e+00 1.365684000000000076e+01 8.651960000000000761e+00 1.200000000000000030e-04 1.639367000000000019e+01 8.651960000000000761e+00 1.501230000000000064e+00 1.550873999999999953e+01 1.101295000000000002e+01 1.501239999999999908e+00 1.188696999999999981e+01 1.337379999999999924e+01 3.002339999999999787e+00 1.277190000000000047e+01 1.101295000000000002e+01 3.002349999999999852e+00 1.462382000000000026e+01 1.337379999999999924e+01 4.503459999999999575e+00 1.365684000000000076e+01 8.651960000000000761e+00 3.002349999999999852e+00 1.639367000000000019e+01 8.651960000000000761e+00 4.503459999999999575e+00 1.550873999999999953e+01 1.101295000000000002e+01 4.503459999999999575e+00 1.188696999999999981e+01 1.337379999999999924e+01 6.004570000000000185e+00 1.277190000000000047e+01 1.101295000000000002e+01 6.004579999999999806e+00 1.462382000000000026e+01 1.337379999999999924e+01 7.505690000000000417e+00 1.365684000000000076e+01 8.651960000000000761e+00 6.004579999999999806e+00 1.639367000000000019e+01 8.651960000000000761e+00 7.505679999999999907e+00 1.550873999999999953e+01 1.101295000000000002e+01 7.505690000000000417e+00 1.188696999999999981e+01 1.337379999999999924e+01 1.200000000000000030e-04 1.824510000000000076e+00 1.836446000000000112e+01 1.200000000000000030e-04 3.676429999999999865e+00 2.072531000000000034e+01 1.501239999999999908e+00 2.709449999999999914e+00 1.600347000000000008e+01 1.200000000000000030e-04 5.446279999999999788e+00 1.600347000000000008e+01 1.501230000000000064e+00 4.561350000000000016e+00 1.836446000000000112e+01 1.501239999999999908e+00 9.395799999999999708e-01 2.072531000000000034e+01 3.002339999999999787e+00 1.824510000000000076e+00 1.836446000000000112e+01 3.002349999999999852e+00 3.676429999999999865e+00 2.072531000000000034e+01 4.503459999999999575e+00 2.709449999999999914e+00 1.600347000000000008e+01 3.002349999999999852e+00 5.446279999999999788e+00 1.600347000000000008e+01 4.503459999999999575e+00 4.561350000000000016e+00 1.836446000000000112e+01 4.503459999999999575e+00 9.395799999999999708e-01 2.072531000000000034e+01 6.004570000000000185e+00 1.824510000000000076e+00 1.836446000000000112e+01 6.004579999999999806e+00 3.676429999999999865e+00 2.072531000000000034e+01 7.505690000000000417e+00 2.709449999999999914e+00 1.600347000000000008e+01 6.004579999999999806e+00 5.446279999999999788e+00 1.600347000000000008e+01 7.505679999999999907e+00 4.561350000000000016e+00 1.836446000000000112e+01 7.505690000000000417e+00 9.395799999999999708e-01 2.072531000000000034e+01 1.200000000000000030e-04 7.298210000000000086e+00 1.836446000000000112e+01 1.200000000000000030e-04 9.150119999999999365e+00 2.072531000000000034e+01 1.501239999999999908e+00 8.183149999999999480e+00 1.600347000000000008e+01 1.200000000000000030e-04 1.091998000000000069e+01 1.600347000000000008e+01 1.501230000000000064e+00 1.003505000000000003e+01 1.836446000000000112e+01 1.501239999999999908e+00 6.413280000000000314e+00 2.072531000000000034e+01 3.002339999999999787e+00 7.298210000000000086e+00 1.836446000000000112e+01 3.002349999999999852e+00 9.150119999999999365e+00 2.072531000000000034e+01 4.503459999999999575e+00 8.183149999999999480e+00 1.600347000000000008e+01 3.002349999999999852e+00 1.091998000000000069e+01 1.600347000000000008e+01 4.503459999999999575e+00 1.003505000000000003e+01 1.836446000000000112e+01 4.503459999999999575e+00 6.413280000000000314e+00 2.072531000000000034e+01 6.004570000000000185e+00 7.298210000000000086e+00 1.836446000000000112e+01 6.004579999999999806e+00 9.150119999999999365e+00 2.072531000000000034e+01 7.505690000000000417e+00 8.183149999999999480e+00 1.600347000000000008e+01 6.004579999999999806e+00 1.091998000000000069e+01 1.600347000000000008e+01 7.505679999999999907e+00 1.003505000000000003e+01 1.836446000000000112e+01 7.505690000000000417e+00 6.413280000000000314e+00 2.072531000000000034e+01 1.200000000000000030e-04 1.277190000000000047e+01 1.836446000000000112e+01 1.200000000000000030e-04 1.462382000000000026e+01 2.072531000000000034e+01 1.501239999999999908e+00 1.365684000000000076e+01 1.600347000000000008e+01 1.200000000000000030e-04 1.639367000000000019e+01 1.600347000000000008e+01 1.501230000000000064e+00 1.550873999999999953e+01 1.836446000000000112e+01 1.501239999999999908e+00 1.188696999999999981e+01 2.072531000000000034e+01 3.002339999999999787e+00 1.277190000000000047e+01 1.836446000000000112e+01 3.002349999999999852e+00 1.462382000000000026e+01 2.072531000000000034e+01 4.503459999999999575e+00 1.365684000000000076e+01 1.600347000000000008e+01 3.002349999999999852e+00 1.639367000000000019e+01 1.600347000000000008e+01 4.503459999999999575e+00 1.550873999999999953e+01 1.836446000000000112e+01 4.503459999999999575e+00 1.188696999999999981e+01 2.072531000000000034e+01 6.004570000000000185e+00 1.277190000000000047e+01 1.836446000000000112e+01 6.004579999999999806e+00 1.462382000000000026e+01 2.072531000000000034e+01 7.505690000000000417e+00 1.365684000000000076e+01 1.600347000000000008e+01 6.004579999999999806e+00 1.639367000000000019e+01 1.600347000000000008e+01 7.505679999999999907e+00 1.550873999999999953e+01 1.836446000000000112e+01 7.505690000000000417e+00 1.188696999999999981e+01 2.072531000000000034e+01