-2.822348029990000214e+03
-2.822310319929999878e+03
-2.822198729820000153e+03
-2.822014080580000154e+03
-2.821757667159999983e+03
