-2.229999999999999994e-04 4.039000000000000055e-03 3.062000000000000052e-03 1.029999999999999964e-04 3.867000000000000211e-03 3.595999999999999804e-03 -6.700000000000000226e-05 -4.388999999999999672e-03 -2.147000000000000037e-03 1.840000000000000001e-04 -2.984000000000000107e-03 -3.299999999999999982e-03 -3.510000000000000208e-04 3.501999999999999905e-03 3.585000000000000079e-03 -9.899999999999999404e-05 4.336999999999999710e-03 3.204999999999999950e-03 -9.309999999999999699e-04 -4.564000000000000348e-03 -3.722000000000000048e-03 -1.450000000000000009e-04 -4.361000000000000293e-03 -3.161000000000000181e-03 3.699999999999999811e-05 3.457000000000000003e-03 3.556999999999999832e-03 -4.159999999999999744e-04 3.897999999999999989e-03 3.650000000000000033e-03 4.240000000000000062e-04 -4.687000000000000194e-03 -3.840999999999999796e-03 -5.540000000000000219e-04 -3.157000000000000084e-03 -3.334999999999999857e-03 -6.200000000000000270e-05 4.179999999999999688e-03 3.544999999999999974e-03 2.099999999999999884e-05 3.361999999999999971e-03 3.174000000000000172e-03 -2.259999999999999910e-04 -4.603000000000000320e-03 -3.322999999999999999e-03 -9.899999999999999404e-05 -5.007000000000000166e-03 -2.974000000000000081e-03 -2.939999999999999905e-04 4.056999999999999842e-03 3.040000000000000167e-03 -1.949999999999999965e-04 3.936000000000000262e-03 2.736999999999999850e-03 -5.439999999999999957e-04 -3.275000000000000133e-03 -3.433999999999999986e-03 -1.129999999999999955e-04 -4.301000000000000136e-03 -2.980000000000000010e-03 -3.399999999999999973e-05 4.053000000000000179e-03 3.158000000000000217e-03 -3.089999999999999756e-04 3.373999999999999829e-03 3.226000000000000135e-03 2.680000000000000090e-04 -3.217999999999999940e-03 -3.477000000000000056e-03 -4.500000000000000283e-05 -4.939999999999999947e-03 -2.997999999999999797e-03 -2.210000000000000050e-04 4.118000000000000133e-03 2.717999999999999930e-03 2.400000000000000061e-05 4.284999999999999747e-03 2.991000000000000169e-03 -8.399999999999999535e-05 -4.565999999999999746e-03 -3.056000000000000123e-03 5.190000000000000386e-04 -4.795999999999999916e-03 -3.980000000000000031e-03 -3.770000000000000022e-04 3.704999999999999960e-03 3.099000000000000192e-03 -5.599999999999999916e-05 4.340000000000000108e-03 3.510000000000000099e-03 -6.499999999999999431e-05 -5.367000000000000243e-03 -3.026000000000000044e-03 -9.399999999999999448e-05 -4.530000000000000172e-03 -2.289999999999999935e-03 1.200000000000000030e-04 3.824000000000000142e-03 3.164000000000000146e-03 -3.069999999999999812e-04 4.217000000000000262e-03 3.023000000000000079e-03 -1.190000000000000058e-04 -5.290999999999999696e-03 -3.014999999999999885e-03 -1.005999999999999950e-03 -4.716999999999999839e-03 -3.908000000000000015e-03 -1.479999999999999925e-04 4.098000000000000080e-03 2.931000000000000012e-03 1.090000000000000067e-04 3.714999999999999986e-03 3.455000000000000172e-03 -1.450000000000000009e-04 -4.452000000000000228e-03 -1.793000000000000106e-03 1.849999999999999973e-04 -3.030999999999999840e-03 -2.945999999999999834e-03 -3.379999999999999758e-04 3.446999999999999977e-03 3.608999999999999795e-03 -1.510000000000000112e-04 4.127999999999999725e-03 3.125000000000000173e-03 -9.060000000000000128e-04 -4.589000000000000197e-03 -3.442000000000000181e-03 -2.000000000000000096e-04 -4.348000000000000302e-03 -2.776999999999999955e-03 -5.300000000000000078e-05 3.452999999999999906e-03 3.579000000000000150e-03 -3.770000000000000022e-04 3.745000000000000065e-03 3.409999999999999837e-03 4.809999999999999823e-04 -4.663999999999999743e-03 -3.637000000000000042e-03 -4.889999999999999599e-04 -3.066999999999999848e-03 -2.967000000000000019e-03 -1.499999999999999869e-04 4.258999999999999765e-03 3.454000000000000039e-03 5.700000000000000314e-05 3.445000000000000145e-03 3.259000000000000178e-03 -1.399999999999999877e-04 -4.680000000000000132e-03 -2.655999999999999941e-03 -7.799999999999999859e-05 -5.004999999999999900e-03 -2.435999999999999797e-03 -2.829999999999999942e-04 4.138000000000000185e-03 2.988999999999999903e-03 -1.849999999999999973e-04 4.026000000000000065e-03 2.897999999999999968e-03 -5.199999999999999544e-04 -3.371999999999999997e-03 -2.873999999999999819e-03 -1.900000000000000105e-05 -4.342999999999999639e-03 -2.618000000000000101e-03 2.599999999999999840e-05 4.231000000000000386e-03 3.027000000000000177e-03 -3.710000000000000190e-04 3.408000000000000005e-03 3.354000000000000210e-03 1.550000000000000000e-04 -3.236999999999999860e-03 -2.961999999999999789e-03 -1.700000000000000122e-04 -5.113999999999999622e-03 -2.524000000000000202e-03 -1.859999999999999945e-04 4.203000000000000139e-03 3.016000000000000018e-03 8.000000000000000654e-05 4.226999999999999855e-03 3.063999999999999883e-03 -7.100000000000000462e-05 -4.414000000000000389e-03 -2.562000000000000041e-03 5.209999999999999788e-04 -4.590999999999999595e-03 -3.363000000000000104e-03 -3.240000000000000150e-04 3.782000000000000205e-03 3.550999999999999903e-03 -3.600000000000000091e-05 4.343999999999999771e-03 3.791000000000000099e-03 -6.899999999999999667e-05 -5.153999999999999727e-03 -2.514000000000000175e-03 -5.500000000000000196e-05 -4.416999999999999919e-03 -1.794000000000000022e-03 3.999999999999999819e-06 3.840999999999999796e-03 3.582000000000000114e-03 -3.950000000000000061e-04 4.159999999999999636e-03 3.118999999999999811e-03 -9.899999999999999404e-05 -5.212999999999999752e-03 -2.516000000000000007e-03 -1.059999999999999961e-03 -4.527999999999999907e-03 -3.305999999999999911e-03 -2.390000000000000089e-04 3.876000000000000105e-03 3.242000000000000090e-03 1.849999999999999973e-04 3.828999999999999938e-03 3.723999999999999880e-03 -4.399999999999999886e-05 -4.583000000000000268e-03 -1.915999999999999951e-03 3.499999999999999964e-04 -3.040999999999999866e-03 -2.933999999999999976e-03 -2.380000000000000117e-04 3.377999999999999926e-03 3.664999999999999855e-03 -2.090000000000000115e-04 4.121999999999999796e-03 3.353000000000000078e-03 -1.023999999999999954e-03 -4.823000000000000030e-03 -3.621999999999999786e-03 -2.590000000000000071e-04 -4.520999999999999845e-03 -2.773999999999999990e-03 -5.800000000000000034e-05 3.341999999999999919e-03 3.765000000000000117e-03 -4.110000000000000155e-04 3.795999999999999895e-03 3.814000000000000116e-03 4.840000000000000010e-04 -4.810000000000000039e-03 -3.673000000000000050e-03 -5.910000000000000539e-04 -3.181999999999999933e-03 -2.840000000000000076e-03 -1.259999999999999998e-04 4.377999999999999947e-03 4.312999999999999994e-03 2.500000000000000120e-05 3.457000000000000003e-03 4.135999999999999920e-03 -2.210000000000000050e-04 -4.407000000000000327e-03 -2.784000000000000016e-03 -7.299999999999999903e-05 -5.163000000000000055e-03 -2.609000000000000208e-03 -3.469999999999999777e-04 4.211000000000000333e-03 3.746999999999999897e-03 -1.990000000000000124e-04 3.997999999999999818e-03 3.621999999999999786e-03 -5.619999999999999996e-04 -3.137000000000000031e-03 -3.082999999999999803e-03 -5.800000000000000034e-05 -4.479000000000000342e-03 -2.778999999999999786e-03 7.700000000000000139e-05 4.288000000000000145e-03 3.791000000000000099e-03 -3.110000000000000243e-04 3.435999999999999818e-03 4.205000000000000404e-03 2.719999999999999979e-04 -3.027000000000000177e-03 -3.180999999999999800e-03 -1.230000000000000082e-04 -5.133999999999999675e-03 -2.645999999999999915e-03 -1.550000000000000000e-04 4.187999999999999882e-03 3.670000000000000085e-03 3.300000000000000253e-05 4.256000000000000234e-03 3.563999999999999894e-03 -6.899999999999999667e-05 -4.355000000000000364e-03 -2.431000000000000001e-03 5.410000000000000312e-04 -4.668000000000000274e-03 -3.602000000000000167e-03 -4.319999999999999838e-04 3.882000000000000034e-03 3.998999999999999951e-03 -4.500000000000000283e-05 4.355999999999999629e-03 4.047000000000000250e-03 6.600000000000000506e-05 -5.163000000000000055e-03 -2.562000000000000041e-03 -1.060000000000000016e-04 -4.284999999999999747e-03 -2.125999999999999852e-03 1.010000000000000020e-04 3.880999999999999901e-03 4.067000000000000302e-03 -3.339999999999999870e-04 4.268000000000000092e-03 3.671999999999999917e-03 -2.539999999999999940e-04 -5.166999999999999718e-03 -2.516000000000000007e-03 -1.020999999999999989e-03 -4.590999999999999595e-03 -3.533999999999999815e-03 -1.689999999999999879e-04 4.580000000000000195e-04 -1.461000000000000059e-03 -6.999999999999999387e-05 -1.774699999999999889e-02 -6.504000000000000233e-03 1.299999999999999920e-05 1.785000000000000128e-02 6.950999999999999714e-03 2.000000000000000164e-05 1.720999999999999960e-02 6.063999999999999946e-03 7.569999999999999689e-04 -2.199999999999999943e-05 -2.495999999999999955e-03 4.090000000000000211e-04 -1.763800000000000090e-02 -6.634000000000000140e-03 -7.899999999999999579e-05 3.730000000000000134e-04 -1.502000000000000080e-03 -1.250000000000000026e-04 -1.811400000000000163e-02 -6.595000000000000168e-03 1.689999999999999879e-04 1.796400000000000080e-02 6.608000000000000158e-03 3.260000000000000094e-04 1.775399999999999895e-02 6.016999999999999779e-03 3.600000000000000227e-04 -4.899999999999999842e-05 -2.171000000000000187e-03 5.599999999999999916e-05 -1.730999999999999900e-02 -5.945999999999999897e-03 7.020000000000000415e-04 3.319999999999999926e-04 -1.525000000000000097e-03 3.640000000000000115e-04 -1.815900000000000153e-02 -6.766999999999999578e-03 -5.000000000000000409e-06 1.775600000000000095e-02 6.792000000000000294e-03 -1.289999999999999914e-04 1.778800000000000173e-02 5.922000000000000181e-03 -5.010000000000000347e-04 -6.200000000000000270e-05 -2.370000000000000145e-03 -3.699999999999999947e-04 -1.769799999999999846e-02 -6.424000000000000023e-03 -4.000000000000000327e-05 -1.749999999999999982e-04 -3.207999999999999914e-03 -1.029999999999999964e-04 -1.649199999999999972e-02 -6.434999999999999748e-03 2.719999999999999979e-04 1.720100000000000101e-02 6.173999999999999801e-03 -1.550000000000000000e-04 1.754999999999999963e-02 6.695999999999999695e-03 7.979999999999999897e-04 -4.199999999999999768e-05 -2.191999999999999938e-03 5.630000000000000239e-04 -1.725700000000000151e-02 -7.264999999999999757e-03 2.039999999999999984e-04 1.600000000000000131e-04 -2.629999999999999959e-03 -1.340000000000000045e-04 -1.685000000000000039e-02 -6.738000000000000066e-03 1.110000000000000011e-04 1.704400000000000012e-02 6.601000000000000097e-03 1.869999999999999917e-04 1.738500000000000115e-02 7.121999999999999859e-03 4.070000000000000267e-04 2.759999999999999867e-04 -1.631999999999999987e-03 1.430000000000000064e-04 -1.817500000000000018e-02 -6.551999999999999665e-03 3.589999999999999984e-04 2.000000000000000096e-04 -2.678999999999999958e-03 3.280000000000000038e-04 -1.690200000000000036e-02 -6.609000000000000291e-03 -2.519999999999999996e-04 1.728899999999999881e-02 6.189000000000000057e-03 1.279999999999999942e-04 1.751099999999999879e-02 6.971999999999999899e-03 -6.759999999999999516e-04 5.000000000000000240e-05 -2.102000000000000136e-03 -6.179999999999999513e-04 -1.724200000000000038e-02 -7.144000000000000176e-03 -1.160000000000000007e-04 4.300000000000000165e-05 -1.213000000000000102e-03 -1.330000000000000073e-04 -1.748600000000000154e-02 -5.401000000000000419e-03 -1.620000000000000075e-04 1.791200000000000084e-02 6.766000000000000313e-03 -9.500000000000000523e-05 1.806999999999999926e-02 7.067000000000000365e-03 3.179999999999999776e-04 6.920000000000000153e-04 -5.720000000000000258e-04 4.979999999999999618e-04 -1.679699999999999943e-02 -5.939999999999999968e-03 -2.599999999999999840e-05 -1.160000000000000007e-04 -1.139000000000000038e-03 -2.809999999999999998e-04 -1.657199999999999993e-02 -6.108999999999999847e-03 2.900000000000000017e-04 1.745400000000000076e-02 6.760000000000000384e-03 -3.600000000000000091e-05 1.828600000000000017e-02 6.564999999999999655e-03 5.860000000000000408e-04 4.519999999999999821e-04 -7.230000000000000098e-04 2.090000000000000115e-04 -1.641000000000000097e-02 -5.669999999999999693e-03 6.759999999999999516e-04 -5.599999999999999916e-05 -1.079000000000000098e-03 4.939999999999999730e-04 -1.659300000000000011e-02 -6.027000000000000239e-03 4.199999999999999768e-05 1.796199999999999880e-02 6.670999999999999847e-03 3.849999999999999798e-04 1.820599999999999996e-02 6.485999999999999578e-03 -2.860000000000000129e-04 7.470000000000000511e-04 -5.929999999999999941e-04 -4.560000000000000251e-04 -1.675499999999999906e-02 -5.987000000000000134e-03 3.399999999999999973e-05 -7.499999999999999343e-05 -1.853000000000000046e-03 -8.000000000000000654e-05 -1.672500000000000028e-02 -5.760000000000000363e-03 -1.999999999999999909e-06 1.704299999999999912e-02 7.046000000000000180e-03 -5.199999999999999680e-05 1.755500000000000116e-02 6.793000000000000427e-03 1.038000000000000077e-03 3.020000000000000223e-04 -1.167000000000000069e-03 6.359999999999999551e-04 -1.764399999999999996e-02 -6.572999999999999850e-03 -6.999999999999999387e-05 -2.369999999999999874e-04 -1.672000000000000092e-03 -1.350000000000000017e-04 -1.724499999999999991e-02 -5.937999999999999702e-03 2.100000000000000087e-04 1.726499999999999910e-02 6.701999999999999624e-03 4.960000000000000216e-04 1.808500000000000038e-02 6.728999999999999738e-03 3.110000000000000243e-04 4.569999999999999952e-04 -1.142999999999999919e-03 1.230000000000000082e-04 -1.738100000000000062e-02 -5.951999999999999826e-03 4.780000000000000178e-04 -2.570000000000000127e-04 -1.915000000000000036e-03 1.939999999999999993e-04 -1.724900000000000044e-02 -5.918999999999999782e-03 -1.019999999999999992e-04 1.704999999999999918e-02 6.996999999999999748e-03 -1.579999999999999916e-04 1.810600000000000057e-02 6.681000000000000306e-03 -7.460000000000000268e-04 3.899999999999999929e-04 -1.454999999999999913e-03 -5.739999999999999660e-04 -1.773999999999999883e-02 -6.540999999999999939e-03 5.300000000000000078e-05 1.038000000000000077e-03 -8.429999999999999993e-04 -2.400000000000000061e-05 -1.657600000000000046e-02 -6.028999999999999637e-03 4.679999999999999915e-04 1.799399999999999958e-02 7.230000000000000315e-03 -9.500000000000000523e-05 1.819600000000000037e-02 7.133999999999999717e-03 9.799999999999999684e-04 3.860000000000000041e-04 -5.259999999999999919e-04 7.150000000000000322e-04 -1.604399999999999923e-02 -6.124000000000000103e-03 3.640000000000000115e-04 1.330999999999999935e-03 -4.589999999999999896e-04 0.000000000000000000e+00 -1.698099999999999957e-02 -6.163000000000000075e-03 1.869999999999999917e-04 1.786300000000000041e-02 7.670999999999999867e-03 2.280000000000000126e-04 1.804000000000000048e-02 7.472999999999999608e-03 2.849999999999999886e-04 7.600000000000000418e-04 -3.110000000000000243e-04 7.200000000000000182e-05 -1.702100000000000141e-02 -5.369999999999999774e-03 6.700000000000000226e-05 1.268000000000000030e-03 -5.209999999999999788e-04 2.429999999999999977e-04 -1.697999999999999857e-02 -6.067000000000000344e-03 -4.420000000000000101e-04 1.807800000000000032e-02 7.098000000000000143e-03 -2.199999999999999943e-05 1.806599999999999873e-02 7.433999999999999636e-03 -7.429999999999999539e-04 4.960000000000000216e-04 -5.559999999999999621e-04 -6.179999999999999513e-04 -1.603800000000000017e-02 -6.156000000000000014e-03 1.699999999999999987e-05 -6.830000000000000134e-04 -1.309000000000000051e-03 -4.800000000000000122e-05 -1.806200000000000166e-02 -5.905999999999999792e-03 -5.099999999999999960e-05 1.764800000000000049e-02 6.421999999999999757e-03 7.799999999999999859e-05 1.708799999999999902e-02 6.666000000000000050e-03 6.719999999999999628e-04 1.050000000000000044e-04 -1.719999999999999958e-03 6.040000000000000447e-04 -1.785799999999999887e-02 -6.424000000000000023e-03 1.450000000000000009e-04 -5.410000000000000312e-04 -9.929999999999999591e-04 -6.899999999999999667e-05 -1.717700000000000130e-02 -6.442999999999999942e-03 1.700000000000000122e-04 1.718099999999999836e-02 6.309000000000000372e-03 -1.489999999999999897e-04 1.719299999999999995e-02 6.080999999999999600e-03 2.719999999999999979e-04 -3.139999999999999888e-04 -1.606000000000000006e-03 1.450000000000000009e-04 -1.751499999999999932e-02 -5.852000000000000431e-03 2.999999999999999737e-04 -6.340000000000000149e-04 -1.080999999999999930e-03 2.629999999999999959e-04 -1.731100000000000000e-02 -6.420000000000000359e-03 1.000000000000000048e-04 1.773999999999999883e-02 6.465000000000000260e-03 2.990000000000000036e-04 1.730599999999999847e-02 5.975000000000000276e-03 -3.660000000000000059e-04 -9.000000000000000228e-06 -1.810999999999999893e-03 -5.429999999999999714e-04 -1.795199999999999921e-02 -6.316000000000000433e-03 4.300000000000000165e-05 9.330000000000000186e-04 3.609999999999999928e-04 -1.019999999999999992e-04 -1.679399999999999990e-02 -5.400000000000000286e-03 3.959999999999999762e-04 1.761000000000000065e-02 7.734000000000000423e-03 1.079999999999999960e-04 1.783799999999999969e-02 6.866999999999999840e-03 8.279999999999999600e-04 5.580000000000000107e-04 2.010000000000000068e-04 4.330000000000000081e-04 -1.683099999999999874e-02 -6.267000000000000001e-03 -3.100000000000000135e-05 6.149999999999999868e-04 -1.789999999999999870e-04 -2.539999999999999940e-04 -1.727199999999999916e-02 -5.913999999999999986e-03 -4.699999999999999724e-05 1.772800000000000070e-02 7.343999999999999834e-03 4.449999999999999746e-04 1.840400000000000022e-02 6.762999999999999914e-03 2.990000000000000036e-04 4.879999999999999898e-04 -1.999999999999999909e-06 2.519999999999999996e-04 -1.657799999999999899e-02 -5.858000000000000360e-03 4.400000000000000157e-04 5.050000000000000235e-04 5.500000000000000196e-05 4.670000000000000214e-04 -1.734700000000000131e-02 -5.710999999999999931e-03 -1.450000000000000009e-04 1.761599999999999971e-02 7.893999999999999975e-03 -2.689999999999999791e-04 1.848199999999999843e-02 6.753999999999999587e-03 -5.190000000000000386e-04 6.610000000000000207e-04 2.999999999999999737e-04 -4.629999999999999784e-04 -1.694999999999999979e-02 -6.156000000000000014e-03 -2.500000000000000120e-05 3.460000000000000076e-04 -1.949999999999999965e-04 -7.399999999999999623e-05 -1.760600000000000012e-02 -5.988000000000000267e-03 5.630000000000000239e-04 1.779000000000000026e-02 6.623000000000000415e-03 -1.340000000000000045e-04 1.720000000000000001e-02 6.492000000000000375e-03 8.790000000000000070e-04 -4.989999999999999861e-04 -1.221000000000000080e-03 4.719999999999999803e-04 -1.697600000000000151e-02 -6.146999999999999686e-03 2.739999999999999923e-04 5.109999999999999525e-04 -4.829999999999999767e-04 -2.840000000000000185e-04 -1.799500000000000058e-02 -6.459999999999999597e-03 3.499999999999999693e-05 1.783799999999999969e-02 6.723999999999999942e-03 3.899999999999999929e-04 1.722999999999999879e-02 6.525999999999999683e-03 2.620000000000000258e-04 -1.710000000000000094e-04 -1.502000000000000080e-03 3.399999999999999973e-05 -1.790699999999999931e-02 -5.459000000000000311e-03 2.959999999999999849e-04 5.569999999999999864e-04 -4.800000000000000122e-04 5.190000000000000386e-04 -1.790699999999999931e-02 -6.427000000000000421e-03 -4.440000000000000045e-04 1.786300000000000041e-02 6.427999999999999686e-03 -1.190000000000000058e-04 1.722200000000000120e-02 6.526999999999999816e-03 -6.220000000000000485e-04 -4.650000000000000270e-04 -1.219999999999999947e-03 -3.539999999999999853e-04 -1.699799999999999922e-02 -6.206999999999999844e-03 -5.199999999999999680e-05 -7.900000000000000121e-04 -1.072999999999999952e-03 -1.800000000000000113e-04 -1.730900000000000147e-02 -5.738000000000000045e-03 1.820000000000000057e-04 1.722900000000000126e-02 6.290999999999999717e-03 1.389999999999999905e-04 1.730999999999999900e-02 7.686000000000000124e-03 7.010000000000000172e-04 5.680000000000000370e-04 -1.169999999999999979e-04 3.130000000000000187e-04 -1.805800000000000113e-02 -6.558999999999999726e-03 1.949999999999999965e-04 -8.120000000000000048e-04 -1.843999999999999936e-03 -1.759999999999999954e-04 -1.636900000000000160e-02 -6.427000000000000421e-03 1.169999999999999979e-04 1.666600000000000026e-02 6.383999999999999918e-03 1.110000000000000011e-04 1.754000000000000004e-02 6.860999999999999911e-03 4.440000000000000045e-04 1.019999999999999992e-04 -8.260000000000000198e-04 2.429999999999999977e-04 -1.754599999999999910e-02 -6.309000000000000372e-03 3.260000000000000094e-04 -6.880000000000000265e-04 -1.729999999999999984e-03 4.470000000000000232e-04 -1.645999999999999894e-02 -6.346000000000000078e-03 -1.879999999999999890e-04 1.704500000000000112e-02 6.457000000000000066e-03 -8.500000000000000611e-05 1.739200000000000121e-02 7.080999999999999621e-03 -5.100000000000000366e-04 5.130000000000000011e-04 1.350000000000000017e-04 -3.970000000000000005e-04 -1.801000000000000170e-02 -6.309999999999999637e-03