8.706905739999999838e+00 0.000000000000000000e+00 0.000000000000000000e+00 0.000000000000000000e+00 1.675644867999999832e+01 0.000000000000000000e+00 0.000000000000000000e+00 0.000000000000000000e+00 2.250494885999999894e+01
8.706905739999999838e+00 0.000000000000000000e+00 0.000000000000000000e+00 0.000000000000000000e+00 1.675644867999999832e+01 0.000000000000000000e+00 0.000000000000000000e+00 0.000000000000000000e+00 2.250494885999999894e+01
8.706905739999999838e+00 0.000000000000000000e+00 0.000000000000000000e+00 0.000000000000000000e+00 1.675644867999999832e+01 0.000000000000000000e+00 0.000000000000000000e+00 0.000000000000000000e+00 2.250494885999999894e+01
8.706905739999999838e+00 0.000000000000000000e+00 0.000000000000000000e+00 0.000000000000000000e+00 1.675644867999999832e+01 0.000000000000000000e+00 0.000000000000000000e+00 0.000000000000000000e+00 2.250494885999999894e+01
8.706905739999999838e+00 0.000000000000000000e+00 0.000000000000000000e+00 0.000000000000000000e+00 1.675644867999999832e+01 0.000000000000000000e+00 0.000000000000000000e+00 0.000000000000000000e+00 2.250494885999999894e+01
