1.200000000000000030e-04 1.652999999999999955e-02 5.048619999999999663e+00 1.451270000000000060e+00 2.809270000000000156e+00 5.048619999999999663e+00 1.100000000000000039e-04 3.707030000000000047e+00 2.423690000000000122e+00 1.451270000000000060e+00 9.142900000000000471e-01 2.423690000000000122e+00 2.902420000000000222e+00 1.652999999999999955e-02 5.048619999999999663e+00 4.353570000000000384e+00 2.809270000000000156e+00 5.048619999999999663e+00 2.902420000000000222e+00 3.707030000000000047e+00 2.423690000000000122e+00 4.353570000000000384e+00 9.142900000000000471e-01 2.423690000000000122e+00 5.804719999999999658e+00 1.652999999999999955e-02 5.048619999999999663e+00 7.255880000000000329e+00 2.809270000000000156e+00 5.048619999999999663e+00 5.804719999999999658e+00 3.707030000000000047e+00 2.423690000000000122e+00 7.255869999999999820e+00 9.142900000000000471e-01 2.423690000000000122e+00 1.200000000000000030e-04 5.602009999999999934e+00 5.048619999999999663e+00 1.451270000000000060e+00 8.394750000000000156e+00 5.048619999999999663e+00 1.100000000000000039e-04 9.292510000000000048e+00 2.423690000000000122e+00 1.451270000000000060e+00 6.499769999999999825e+00 2.423690000000000122e+00 2.902420000000000222e+00 5.602009999999999934e+00 5.048619999999999663e+00 4.353570000000000384e+00 8.394750000000000156e+00 5.048619999999999663e+00 2.902420000000000222e+00 9.292510000000000048e+00 2.423690000000000122e+00 4.353570000000000384e+00 6.499769999999999825e+00 2.423690000000000122e+00 5.804719999999999658e+00 5.602009999999999934e+00 5.048619999999999663e+00 7.255880000000000329e+00 8.394750000000000156e+00 5.048619999999999663e+00 5.804719999999999658e+00 9.292510000000000048e+00 2.423690000000000122e+00 7.255869999999999820e+00 6.499769999999999825e+00 2.423690000000000122e+00 1.200000000000000030e-04 1.118749000000000038e+01 5.048619999999999663e+00 1.451270000000000060e+00 1.398023000000000060e+01 5.048619999999999663e+00 1.100000000000000039e-04 1.487800000000000011e+01 2.423690000000000122e+00 1.451270000000000060e+00 1.208525000000000027e+01 2.423690000000000122e+00 2.902420000000000222e+00 1.118749000000000038e+01 5.048619999999999663e+00 4.353570000000000384e+00 1.398023000000000060e+01 5.048619999999999663e+00 2.902420000000000222e+00 1.487800000000000011e+01 2.423690000000000122e+00 4.353570000000000384e+00 1.208525000000000027e+01 2.423690000000000122e+00 5.804719999999999658e+00 1.118749000000000038e+01 5.048619999999999663e+00 7.255880000000000329e+00 1.398023000000000060e+01 5.048619999999999663e+00 5.804719999999999658e+00 1.487800000000000011e+01 2.423690000000000122e+00 7.255869999999999820e+00 1.208525000000000027e+01 2.423690000000000122e+00 1.200000000000000030e-04 1.652999999999999955e-02 1.255026999999999937e+01 1.451270000000000060e+00 2.809270000000000156e+00 1.255026999999999937e+01 1.100000000000000039e-04 3.707030000000000047e+00 9.925340000000000273e+00 1.451270000000000060e+00 9.142900000000000471e-01 9.925340000000000273e+00 2.902420000000000222e+00 1.652999999999999955e-02 1.255026999999999937e+01 4.353570000000000384e+00 2.809270000000000156e+00 1.255026999999999937e+01 2.902420000000000222e+00 3.707030000000000047e+00 9.925340000000000273e+00 4.353570000000000384e+00 9.142900000000000471e-01 9.925340000000000273e+00 5.804719999999999658e+00 1.652999999999999955e-02 1.255026999999999937e+01 7.255880000000000329e+00 2.809270000000000156e+00 1.255026999999999937e+01 5.804719999999999658e+00 3.707030000000000047e+00 9.925340000000000273e+00 7.255869999999999820e+00 9.142900000000000471e-01 9.925340000000000273e+00 1.200000000000000030e-04 5.602009999999999934e+00 1.255026999999999937e+01 1.451270000000000060e+00 8.394750000000000156e+00 1.255026999999999937e+01 1.100000000000000039e-04 9.292510000000000048e+00 9.925340000000000273e+00 1.451270000000000060e+00 6.499769999999999825e+00 9.925340000000000273e+00 2.902420000000000222e+00 5.602009999999999934e+00 1.255026999999999937e+01 4.353570000000000384e+00 8.394750000000000156e+00 1.255026999999999937e+01 2.902420000000000222e+00 9.292510000000000048e+00 9.925340000000000273e+00 4.353570000000000384e+00 6.499769999999999825e+00 9.925340000000000273e+00 5.804719999999999658e+00 5.602009999999999934e+00 1.255026999999999937e+01 7.255880000000000329e+00 8.394750000000000156e+00 1.255026999999999937e+01 5.804719999999999658e+00 9.292510000000000048e+00 9.925340000000000273e+00 7.255869999999999820e+00 6.499769999999999825e+00 9.925340000000000273e+00 1.200000000000000030e-04 1.118749000000000038e+01 1.255026999999999937e+01 1.451270000000000060e+00 1.398023000000000060e+01 1.255026999999999937e+01 1.100000000000000039e-04 1.487800000000000011e+01 9.925340000000000273e+00 1.451270000000000060e+00 1.208525000000000027e+01 9.925340000000000273e+00 2.902420000000000222e+00 1.118749000000000038e+01 1.255026999999999937e+01 4.353570000000000384e+00 1.398023000000000060e+01 1.255026999999999937e+01 2.902420000000000222e+00 1.487800000000000011e+01 9.925340000000000273e+00 4.353570000000000384e+00 1.208525000000000027e+01 9.925340000000000273e+00 5.804719999999999658e+00 1.118749000000000038e+01 1.255026999999999937e+01 7.255880000000000329e+00 1.398023000000000060e+01 1.255026999999999937e+01 5.804719999999999658e+00 1.487800000000000011e+01 9.925340000000000273e+00 7.255869999999999820e+00 1.208525000000000027e+01 9.925340000000000273e+00 1.200000000000000030e-04 1.652999999999999955e-02 2.005191999999999908e+01 1.451270000000000060e+00 2.809270000000000156e+00 2.005190999999999946e+01 1.100000000000000039e-04 3.707030000000000047e+00 1.742698999999999998e+01 1.451270000000000060e+00 9.142900000000000471e-01 1.742698999999999998e+01 2.902420000000000222e+00 1.652999999999999955e-02 2.005191999999999908e+01 4.353570000000000384e+00 2.809270000000000156e+00 2.005190999999999946e+01 2.902420000000000222e+00 3.707030000000000047e+00 1.742698999999999998e+01 4.353570000000000384e+00 9.142900000000000471e-01 1.742698999999999998e+01 5.804719999999999658e+00 1.652999999999999955e-02 2.005191999999999908e+01 7.255880000000000329e+00 2.809270000000000156e+00 2.005190999999999946e+01 5.804719999999999658e+00 3.707030000000000047e+00 1.742698999999999998e+01 7.255869999999999820e+00 9.142900000000000471e-01 1.742698999999999998e+01 1.200000000000000030e-04 5.602009999999999934e+00 2.005191999999999908e+01 1.451270000000000060e+00 8.394750000000000156e+00 2.005190999999999946e+01 1.100000000000000039e-04 9.292510000000000048e+00 1.742698999999999998e+01 1.451270000000000060e+00 6.499769999999999825e+00 1.742698999999999998e+01 2.902420000000000222e+00 5.602009999999999934e+00 2.005191999999999908e+01 4.353570000000000384e+00 8.394750000000000156e+00 2.005190999999999946e+01 2.902420000000000222e+00 9.292510000000000048e+00 1.742698999999999998e+01 4.353570000000000384e+00 6.499769999999999825e+00 1.742698999999999998e+01 5.804719999999999658e+00 5.602009999999999934e+00 2.005191999999999908e+01 7.255880000000000329e+00 8.394750000000000156e+00 2.005190999999999946e+01 5.804719999999999658e+00 9.292510000000000048e+00 1.742698999999999998e+01 7.255869999999999820e+00 6.499769999999999825e+00 1.742698999999999998e+01 1.200000000000000030e-04 1.118749000000000038e+01 2.005191999999999908e+01 1.451270000000000060e+00 1.398023000000000060e+01 2.005190999999999946e+01 1.100000000000000039e-04 1.487800000000000011e+01 1.742698999999999998e+01 1.451270000000000060e+00 1.208525000000000027e+01 1.742698999999999998e+01 2.902420000000000222e+00 1.118749000000000038e+01 2.005191999999999908e+01 4.353570000000000384e+00 1.398023000000000060e+01 2.005190999999999946e+01 2.902420000000000222e+00 1.487800000000000011e+01 1.742698999999999998e+01 4.353570000000000384e+00 1.208525000000000027e+01 1.742698999999999998e+01 5.804719999999999658e+00 1.118749000000000038e+01 2.005191999999999908e+01 7.255880000000000329e+00 1.398023000000000060e+01 2.005190999999999946e+01 5.804719999999999658e+00 1.487800000000000011e+01 1.742698999999999998e+01 7.255869999999999820e+00 1.208525000000000027e+01 1.742698999999999998e+01 1.200000000000000030e-04 1.861769999999999925e+00 3.736110000000000042e+00 1.200000000000000030e-04 3.778659999999999908e+00 6.132150000000000212e+00 1.451270000000000060e+00 2.737659999999999982e+00 1.340170000000000083e+00 1.200000000000000030e-04 5.530400000000000205e+00 1.340170000000000083e+00 1.451270000000000060e+00 4.654519999999999769e+00 3.736120000000000108e+00 1.451270000000000060e+00 9.859200000000000186e-01 6.132159999999999833e+00 2.902420000000000222e+00 1.861769999999999925e+00 3.736110000000000042e+00 2.902429999999999843e+00 3.778659999999999908e+00 6.132150000000000212e+00 4.353570000000000384e+00 2.737659999999999982e+00 1.340170000000000083e+00 2.902420000000000222e+00 5.530400000000000205e+00 1.340170000000000083e+00 4.353580000000000005e+00 4.654519999999999769e+00 3.736120000000000108e+00 4.353580000000000005e+00 9.859200000000000186e-01 6.132159999999999833e+00 5.804730000000000167e+00 1.861769999999999925e+00 3.736110000000000042e+00 5.804730000000000167e+00 3.778659999999999908e+00 6.132150000000000212e+00 7.255869999999999820e+00 2.737659999999999982e+00 1.340170000000000083e+00 5.804719999999999658e+00 5.530400000000000205e+00 1.340170000000000083e+00 7.255880000000000329e+00 4.654519999999999769e+00 3.736120000000000108e+00 7.255880000000000329e+00 9.859200000000000186e-01 6.132159999999999833e+00 1.200000000000000030e-04 7.447250000000000369e+00 3.736110000000000042e+00 1.200000000000000030e-04 9.364140000000000796e+00 6.132150000000000212e+00 1.451270000000000060e+00 8.323140000000000427e+00 1.340170000000000083e+00 1.200000000000000030e-04 1.111588000000000065e+01 1.340170000000000083e+00 1.451270000000000060e+00 1.024000000000000021e+01 3.736120000000000108e+00 1.451270000000000060e+00 6.571410000000000196e+00 6.132159999999999833e+00 2.902420000000000222e+00 7.447250000000000369e+00 3.736110000000000042e+00 2.902429999999999843e+00 9.364140000000000796e+00 6.132150000000000212e+00 4.353570000000000384e+00 8.323140000000000427e+00 1.340170000000000083e+00 2.902420000000000222e+00 1.111588000000000065e+01 1.340170000000000083e+00 4.353580000000000005e+00 1.024000000000000021e+01 3.736120000000000108e+00 4.353580000000000005e+00 6.571410000000000196e+00 6.132159999999999833e+00 5.804730000000000167e+00 7.447250000000000369e+00 3.736110000000000042e+00 5.804730000000000167e+00 9.364140000000000796e+00 6.132150000000000212e+00 7.255869999999999820e+00 8.323140000000000427e+00 1.340170000000000083e+00 5.804719999999999658e+00 1.111588000000000065e+01 1.340170000000000083e+00 7.255880000000000329e+00 1.024000000000000021e+01 3.736120000000000108e+00 7.255880000000000329e+00 6.571410000000000196e+00 6.132159999999999833e+00 1.200000000000000030e-04 1.303274000000000044e+01 3.736110000000000042e+00 1.200000000000000030e-04 1.494963000000000086e+01 6.132150000000000212e+00 1.451270000000000060e+00 1.390863000000000049e+01 1.340170000000000083e+00 1.200000000000000030e-04 1.670137000000000072e+01 1.340170000000000083e+00 1.451270000000000060e+00 1.582548000000000066e+01 3.736120000000000108e+00 1.451270000000000060e+00 1.215689000000000064e+01 6.132159999999999833e+00 2.902420000000000222e+00 1.303274000000000044e+01 3.736110000000000042e+00 2.902429999999999843e+00 1.494963000000000086e+01 6.132150000000000212e+00 4.353570000000000384e+00 1.390863000000000049e+01 1.340170000000000083e+00 2.902420000000000222e+00 1.670137000000000072e+01 1.340170000000000083e+00 4.353580000000000005e+00 1.582548000000000066e+01 3.736120000000000108e+00 4.353580000000000005e+00 1.215689000000000064e+01 6.132159999999999833e+00 5.804730000000000167e+00 1.303274000000000044e+01 3.736110000000000042e+00 5.804730000000000167e+00 1.494963000000000086e+01 6.132150000000000212e+00 7.255869999999999820e+00 1.390863000000000049e+01 1.340170000000000083e+00 5.804719999999999658e+00 1.670137000000000072e+01 1.340170000000000083e+00 7.255880000000000329e+00 1.582548000000000066e+01 3.736120000000000108e+00 7.255880000000000329e+00 1.215689000000000064e+01 6.132159999999999833e+00 1.200000000000000030e-04 1.861769999999999925e+00 1.123775999999999975e+01 1.200000000000000030e-04 3.778659999999999908e+00 1.363380000000000081e+01 1.451270000000000060e+00 2.737659999999999982e+00 8.841820000000000235e+00 1.200000000000000030e-04 5.530400000000000205e+00 8.841820000000000235e+00 1.451270000000000060e+00 4.654519999999999769e+00 1.123775999999999975e+01 1.451270000000000060e+00 9.859200000000000186e-01 1.363381000000000043e+01 2.902420000000000222e+00 1.861769999999999925e+00 1.123775999999999975e+01 2.902429999999999843e+00 3.778659999999999908e+00 1.363380000000000081e+01 4.353570000000000384e+00 2.737659999999999982e+00 8.841820000000000235e+00 2.902420000000000222e+00 5.530400000000000205e+00 8.841820000000000235e+00 4.353580000000000005e+00 4.654519999999999769e+00 1.123775999999999975e+01 4.353580000000000005e+00 9.859200000000000186e-01 1.363381000000000043e+01 5.804730000000000167e+00 1.861769999999999925e+00 1.123775999999999975e+01 5.804730000000000167e+00 3.778659999999999908e+00 1.363380000000000081e+01 7.255869999999999820e+00 2.737659999999999982e+00 8.841820000000000235e+00 5.804719999999999658e+00 5.530400000000000205e+00 8.841820000000000235e+00 7.255880000000000329e+00 4.654519999999999769e+00 1.123775999999999975e+01 7.255880000000000329e+00 9.859200000000000186e-01 1.363381000000000043e+01 1.200000000000000030e-04 7.447250000000000369e+00 1.123775999999999975e+01 1.200000000000000030e-04 9.364140000000000796e+00 1.363380000000000081e+01 1.451270000000000060e+00 8.323140000000000427e+00 8.841820000000000235e+00 1.200000000000000030e-04 1.111588000000000065e+01 8.841820000000000235e+00 1.451270000000000060e+00 1.024000000000000021e+01 1.123775999999999975e+01 1.451270000000000060e+00 6.571410000000000196e+00 1.363381000000000043e+01 2.902420000000000222e+00 7.447250000000000369e+00 1.123775999999999975e+01 2.902429999999999843e+00 9.364140000000000796e+00 1.363380000000000081e+01 4.353570000000000384e+00 8.323140000000000427e+00 8.841820000000000235e+00 2.902420000000000222e+00 1.111588000000000065e+01 8.841820000000000235e+00 4.353580000000000005e+00 1.024000000000000021e+01 1.123775999999999975e+01 4.353580000000000005e+00 6.571410000000000196e+00 1.363381000000000043e+01 5.804730000000000167e+00 7.447250000000000369e+00 1.123775999999999975e+01 5.804730000000000167e+00 9.364140000000000796e+00 1.363380000000000081e+01 7.255869999999999820e+00 8.323140000000000427e+00 8.841820000000000235e+00 5.804719999999999658e+00 1.111588000000000065e+01 8.841820000000000235e+00 7.255880000000000329e+00 1.024000000000000021e+01 1.123775999999999975e+01 7.255880000000000329e+00 6.571410000000000196e+00 1.363381000000000043e+01 1.200000000000000030e-04 1.303274000000000044e+01 1.123775999999999975e+01 1.200000000000000030e-04 1.494963000000000086e+01 1.363380000000000081e+01 1.451270000000000060e+00 1.390863000000000049e+01 8.841820000000000235e+00 1.200000000000000030e-04 1.670137000000000072e+01 8.841820000000000235e+00 1.451270000000000060e+00 1.582548000000000066e+01 1.123775999999999975e+01 1.451270000000000060e+00 1.215689000000000064e+01 1.363381000000000043e+01 2.902420000000000222e+00 1.303274000000000044e+01 1.123775999999999975e+01 2.902429999999999843e+00 1.494963000000000086e+01 1.363380000000000081e+01 4.353570000000000384e+00 1.390863000000000049e+01 8.841820000000000235e+00 2.902420000000000222e+00 1.670137000000000072e+01 8.841820000000000235e+00 4.353580000000000005e+00 1.582548000000000066e+01 1.123775999999999975e+01 4.353580000000000005e+00 1.215689000000000064e+01 1.363381000000000043e+01 5.804730000000000167e+00 1.303274000000000044e+01 1.123775999999999975e+01 5.804730000000000167e+00 1.494963000000000086e+01 1.363380000000000081e+01 7.255869999999999820e+00 1.390863000000000049e+01 8.841820000000000235e+00 5.804719999999999658e+00 1.670137000000000072e+01 8.841820000000000235e+00 7.255880000000000329e+00 1.582548000000000066e+01 1.123775999999999975e+01 7.255880000000000329e+00 1.215689000000000064e+01 1.363381000000000043e+01 1.200000000000000030e-04 1.861769999999999925e+00 1.873940999999999946e+01 1.200000000000000030e-04 3.778659999999999908e+00 2.113544999999999874e+01 1.451270000000000060e+00 2.737659999999999982e+00 1.634346999999999994e+01 1.200000000000000030e-04 5.530400000000000205e+00 1.634346999999999994e+01 1.451270000000000060e+00 4.654519999999999769e+00 1.873940999999999946e+01 1.451270000000000060e+00 9.859200000000000186e-01 2.113545999999999836e+01 2.902420000000000222e+00 1.861769999999999925e+00 1.873940999999999946e+01 2.902429999999999843e+00 3.778659999999999908e+00 2.113544999999999874e+01 4.353570000000000384e+00 2.737659999999999982e+00 1.634346999999999994e+01 2.902420000000000222e+00 5.530400000000000205e+00 1.634346999999999994e+01 4.353580000000000005e+00 4.654519999999999769e+00 1.873940999999999946e+01 4.353580000000000005e+00 9.859200000000000186e-01 2.113545999999999836e+01 5.804730000000000167e+00 1.861769999999999925e+00 1.873940999999999946e+01 5.804730000000000167e+00 3.778659999999999908e+00 2.113544999999999874e+01 7.255869999999999820e+00 2.737659999999999982e+00 1.634346999999999994e+01 5.804719999999999658e+00 5.530400000000000205e+00 1.634346999999999994e+01 7.255880000000000329e+00 4.654519999999999769e+00 1.873940999999999946e+01 7.255880000000000329e+00 9.859200000000000186e-01 2.113545999999999836e+01 1.200000000000000030e-04 7.447250000000000369e+00 1.873940999999999946e+01 1.200000000000000030e-04 9.364140000000000796e+00 2.113544999999999874e+01 1.451270000000000060e+00 8.323140000000000427e+00 1.634346999999999994e+01 1.200000000000000030e-04 1.111588000000000065e+01 1.634346999999999994e+01 1.451270000000000060e+00 1.024000000000000021e+01 1.873940999999999946e+01 1.451270000000000060e+00 6.571410000000000196e+00 2.113545999999999836e+01 2.902420000000000222e+00 7.447250000000000369e+00 1.873940999999999946e+01 2.902429999999999843e+00 9.364140000000000796e+00 2.113544999999999874e+01 4.353570000000000384e+00 8.323140000000000427e+00 1.634346999999999994e+01 2.902420000000000222e+00 1.111588000000000065e+01 1.634346999999999994e+01 4.353580000000000005e+00 1.024000000000000021e+01 1.873940999999999946e+01 4.353580000000000005e+00 6.571410000000000196e+00 2.113545999999999836e+01 5.804730000000000167e+00 7.447250000000000369e+00 1.873940999999999946e+01 5.804730000000000167e+00 9.364140000000000796e+00 2.113544999999999874e+01 7.255869999999999820e+00 8.323140000000000427e+00 1.634346999999999994e+01 5.804719999999999658e+00 1.111588000000000065e+01 1.634346999999999994e+01 7.255880000000000329e+00 1.024000000000000021e+01 1.873940999999999946e+01 7.255880000000000329e+00 6.571410000000000196e+00 2.113545999999999836e+01 1.200000000000000030e-04 1.303274000000000044e+01 1.873940999999999946e+01 1.200000000000000030e-04 1.494963000000000086e+01 2.113544999999999874e+01 1.451270000000000060e+00 1.390863000000000049e+01 1.634346999999999994e+01 1.200000000000000030e-04 1.670137000000000072e+01 1.634346999999999994e+01 1.451270000000000060e+00 1.582548000000000066e+01 1.873940999999999946e+01 1.451270000000000060e+00 1.215689000000000064e+01 2.113545999999999836e+01 2.902420000000000222e+00 1.303274000000000044e+01 1.873940999999999946e+01 2.902429999999999843e+00 1.494963000000000086e+01 2.113544999999999874e+01 4.353570000000000384e+00 1.390863000000000049e+01 1.634346999999999994e+01 2.902420000000000222e+00 1.670137000000000072e+01 1.634346999999999994e+01 4.353580000000000005e+00 1.582548000000000066e+01 1.873940999999999946e+01 4.353580000000000005e+00 1.215689000000000064e+01 2.113545999999999836e+01 5.804730000000000167e+00 1.303274000000000044e+01 1.873940999999999946e+01 5.804730000000000167e+00 1.494963000000000086e+01 2.113544999999999874e+01 7.255869999999999820e+00 1.390863000000000049e+01 1.634346999999999994e+01 5.804719999999999658e+00 1.670137000000000072e+01 1.634346999999999994e+01 7.255880000000000329e+00 1.582548000000000066e+01 1.873940999999999946e+01 7.255880000000000329e+00 1.215689000000000064e+01 2.113545999999999836e+01