-2.808626689730000180e+03
-2.808590406129999792e+03
-2.808481730189999780e+03
-2.808301352859999952e+03
-2.808050556849999793e+03
