6.099999999999999872e-05 3.070999999999999945e-03 1.495999999999999934e-03 -2.000000000000000164e-05 2.883999999999999845e-03 1.678000000000000021e-03 3.000000000000000076e-05 -2.167000000000000089e-03 -7.230000000000000098e-04 8.899999999999999491e-05 -3.518999999999999993e-03 -6.520000000000000188e-04 1.699999999999999987e-05 2.997999999999999797e-03 1.681999999999999901e-03 8.500000000000000611e-05 2.895000000000000004e-03 1.551999999999999994e-03 1.230000000000000082e-04 -2.162999999999999992e-03 -7.240000000000000342e-04 2.259999999999999910e-04 -3.462999999999999932e-03 -6.970000000000000284e-04 1.340000000000000045e-04 3.194999999999999923e-03 1.590000000000000050e-03 -1.200000000000000030e-05 2.785999999999999848e-03 1.495000000000000018e-03 -3.800000000000000209e-05 -2.188999999999999974e-03 -5.379999999999999583e-04 -6.999999999999999895e-06 -3.521999999999999957e-03 -4.920000000000000328e-04 6.999999999999999895e-06 3.962000000000000244e-03 7.470000000000000511e-04 2.100000000000000087e-04 3.014000000000000186e-03 1.347000000000000107e-03 7.499999999999999343e-05 -3.507999999999999834e-03 -7.179999999999999967e-04 7.299999999999999903e-05 -3.504000000000000170e-03 3.399999999999999973e-05 2.210000000000000050e-04 4.003999999999999747e-03 7.010000000000000172e-04 6.799999999999999946e-05 2.997999999999999797e-03 1.280000000000000105e-03 1.219999999999999974e-04 -3.501999999999999905e-03 -4.820000000000000066e-04 7.799999999999999859e-05 -3.537000000000000213e-03 2.959999999999999849e-04 2.799999999999999958e-05 4.057999999999999975e-03 6.030000000000000204e-04 -6.399999999999999710e-05 2.942999999999999870e-03 1.309000000000000051e-03 1.210000000000000002e-04 -3.615000000000000158e-03 -4.490000000000000176e-04 -1.800000000000000046e-05 -3.485999999999999949e-03 2.900000000000000017e-05 -4.199999999999999768e-05 2.961000000000000090e-03 1.740000000000000010e-03 1.600000000000000131e-04 4.499999999999999660e-03 1.247000000000000062e-03 -4.500000000000000283e-05 -3.344999999999999883e-03 -1.689999999999999879e-04 3.800000000000000209e-05 -2.170000000000000054e-03 -1.070999999999999903e-03 1.410000000000000120e-04 2.899999999999999800e-03 1.732999999999999948e-03 8.100000000000000375e-05 4.298999999999999870e-03 1.234999999999999987e-03 -1.299999999999999920e-05 -3.335999999999999990e-03 -1.090000000000000067e-04 3.800000000000000209e-05 -2.096000000000000207e-03 -8.469999999999999881e-04 -5.000000000000000240e-05 3.013000000000000053e-03 1.701999999999999954e-03 9.999999999999999547e-07 4.347000000000000169e-03 1.183999999999999940e-03 1.810000000000000085e-04 -3.399000000000000112e-03 -2.329999999999999986e-04 2.599999999999999840e-05 -2.023000000000000059e-03 -1.026999999999999918e-03 4.600000000000000004e-05 2.684999999999999887e-03 1.293000000000000095e-03 7.100000000000000462e-05 2.949999999999999931e-03 1.943999999999999981e-03 4.100000000000000047e-05 -2.190000000000000106e-03 -1.314000000000000064e-03 1.640000000000000019e-04 -3.730999999999999941e-03 -8.779999999999999827e-04 1.289999999999999914e-04 2.677999999999999825e-03 1.255999999999999955e-03 -1.099999999999999971e-05 2.932999999999999843e-03 1.817000000000000039e-03 7.399999999999999623e-05 -2.162999999999999992e-03 -1.283000000000000069e-03 1.169999999999999979e-04 -3.811999999999999850e-03 -8.459999999999999638e-04 -9.999999999999999547e-07 2.661000000000000171e-03 1.131000000000000061e-03 -1.699999999999999987e-05 2.918000000000000021e-03 1.814000000000000074e-03 1.000000000000000082e-05 -2.226000000000000114e-03 -1.266999999999999897e-03 1.599999999999999928e-05 -3.719000000000000083e-03 -8.729999999999999696e-04 5.300000000000000078e-05 4.426000000000000247e-03 1.237999999999999951e-03 4.500000000000000283e-05 3.105999999999999820e-03 1.528000000000000061e-03 1.179999999999999951e-04 -3.467000000000000030e-03 -6.790000000000000245e-04 3.899999999999999929e-05 -3.295000000000000186e-03 -3.260000000000000094e-04 3.000000000000000076e-05 4.237000000000000315e-03 1.111000000000000008e-03 1.190000000000000058e-04 3.227999999999999967e-03 1.489000000000000089e-03 1.069999999999999988e-04 -3.409999999999999837e-03 -7.389999999999999651e-04 5.399999999999999798e-05 -3.324000000000000132e-03 -3.550000000000000096e-04 1.600000000000000131e-04 4.330999999999999781e-03 1.074000000000000085e-03 3.699999999999999811e-05 3.043999999999999831e-03 1.482000000000000027e-03 9.899999999999999404e-05 -3.481000000000000153e-03 -6.599999999999999964e-04 4.199999999999999768e-05 -3.253999999999999948e-03 -2.739999999999999923e-04 3.899999999999999929e-05 2.916000000000000189e-03 1.814999999999999990e-03 1.060000000000000016e-04 4.167999999999999830e-03 1.188000000000000037e-03 1.699999999999999987e-05 -3.441000000000000048e-03 -3.550000000000000096e-04 3.399999999999999973e-05 -2.115999999999999825e-03 -1.255000000000000039e-03 2.599999999999999840e-05 2.860999999999999828e-03 1.922000000000000097e-03 5.800000000000000034e-05 4.232999999999999784e-03 1.077999999999999965e-03 1.090000000000000067e-04 -3.333000000000000025e-03 -3.390000000000000001e-04 3.999999999999999819e-06 -2.122000000000000188e-03 -1.226000000000000093e-03 -1.500000000000000038e-05 2.853000000000000067e-03 1.815999999999999906e-03 8.799999999999999771e-05 4.191000000000000281e-03 1.033999999999999980e-03 1.699999999999999987e-05 -3.331999999999999892e-03 -2.979999999999999793e-04 6.200000000000000270e-05 -2.076000000000000154e-03 -1.216000000000000067e-03 6.799999999999999946e-05 2.765000000000000097e-03 1.090000000000000040e-03 3.399999999999999973e-05 2.886999999999999809e-03 1.614999999999999899e-03 1.450000000000000009e-04 -2.098000000000000038e-03 -1.435999999999999993e-03 1.350000000000000017e-04 -3.677000000000000147e-03 -8.649999999999999920e-04 6.000000000000000152e-05 2.765000000000000097e-03 1.012000000000000096e-03 0.000000000000000000e+00 2.877999999999999916e-03 1.668999999999999911e-03 -7.600000000000000418e-05 -2.086000000000000180e-03 -1.518999999999999951e-03 4.399999999999999886e-05 -3.720999999999999915e-03 -7.730000000000000326e-04 7.100000000000000462e-05 2.742000000000000080e-03 1.033000000000000064e-03 2.300000000000000002e-05 2.890000000000000208e-03 1.667999999999999995e-03 2.400000000000000061e-05 -2.124000000000000020e-03 -1.445000000000000104e-03 1.330000000000000073e-04 -3.690000000000000138e-03 -7.339999999999999520e-04 1.450000000000000009e-04 4.525999999999999641e-03 8.739999999999999939e-04 6.600000000000000506e-05 3.017999999999999849e-03 1.258999999999999920e-03 2.220000000000000022e-04 -3.765999999999999816e-03 -9.330000000000000186e-04 5.599999999999999916e-05 -3.237999999999999993e-03 -5.569999999999999864e-04 5.300000000000000078e-05 4.494999999999999864e-03 9.430000000000000448e-04 5.800000000000000034e-05 2.949999999999999931e-03 1.329000000000000103e-03 3.800000000000000209e-05 -3.673000000000000050e-03 -9.929999999999999591e-04 -5.000000000000000409e-06 -3.183000000000000065e-03 -5.360000000000000181e-04 6.200000000000000270e-05 4.547999999999999959e-03 1.036999999999999944e-03 8.200000000000000095e-05 2.906000000000000163e-03 1.273999999999999959e-03 5.300000000000000078e-05 -3.817000000000000080e-03 -9.300000000000000541e-04 7.600000000000000418e-05 -3.083999999999999936e-03 -4.760000000000000234e-04 1.160000000000000007e-04 2.809999999999999998e-03 1.649999999999999991e-03 1.039999999999999936e-04 4.279999999999999950e-03 7.810000000000000102e-04 8.799999999999999771e-05 -3.353000000000000078e-03 -2.649999999999999903e-04 7.399999999999999623e-05 -2.173000000000000018e-03 -1.361000000000000014e-03 0.000000000000000000e+00 2.812999999999999962e-03 1.603000000000000041e-03 6.200000000000000270e-05 4.235000000000000049e-03 7.389999999999999651e-04 2.699999999999999899e-05 -3.357999999999999874e-03 -2.880000000000000073e-04 -7.100000000000000462e-05 -2.118000000000000091e-03 -1.235999999999999903e-03 -5.000000000000000240e-05 2.880999999999999880e-03 1.667000000000000079e-03 8.299999999999999815e-05 4.275000000000000154e-03 8.520000000000000013e-04 1.000000000000000082e-05 -3.344000000000000184e-03 -1.230000000000000082e-04 8.700000000000000051e-05 -2.106999999999999932e-03 -1.224000000000000045e-03 -1.689999999999999879e-04 5.670000000000000127e-04 1.415000000000000025e-03 -3.999999999999999819e-06 -7.919000000000000691e-03 2.290000000000000098e-04 8.399999999999999535e-05 6.557000000000000328e-03 -2.390000000000000089e-04 -4.899999999999999842e-05 5.675000000000000357e-03 -8.660000000000000163e-04 -3.800000000000000209e-05 -1.530000000000000056e-04 1.400999999999999902e-03 -1.749999999999999982e-04 -7.638999999999999957e-03 7.380000000000000492e-04 2.400000000000000061e-05 7.169999999999999724e-04 1.317999999999999944e-03 -8.299999999999999815e-05 -7.938999999999999876e-03 1.689999999999999879e-04 -1.550000000000000000e-04 6.572999999999999850e-03 -7.200000000000000182e-05 2.699999999999999899e-05 5.657999999999999835e-03 -8.149999999999999693e-04 -3.499999999999999693e-05 -3.000000000000000076e-05 1.477000000000000014e-03 2.699999999999999899e-05 -7.672000000000000000e-03 7.349999999999999763e-04 -2.900000000000000017e-05 6.759999999999999516e-04 1.361000000000000014e-03 -3.800000000000000209e-05 -8.028000000000000413e-03 3.699999999999999811e-05 -1.119999999999999983e-04 6.576000000000000248e-03 5.500000000000000196e-05 -3.199999999999999855e-05 5.719000000000000125e-03 -8.329999999999999731e-04 -2.339999999999999958e-04 -1.740000000000000010e-04 1.454999999999999913e-03 -2.400000000000000061e-05 -7.570000000000000340e-03 6.170000000000000354e-04 -1.320000000000000101e-04 -4.809999999999999823e-04 1.799000000000000035e-03 1.179999999999999951e-04 -7.259999999999999960e-03 9.479999999999999495e-04 -7.600000000000000418e-05 6.673000000000000112e-03 -1.753000000000000001e-03 1.550000000000000000e-04 7.176000000000000087e-03 -9.200000000000000278e-04 1.150000000000000035e-04 5.060000000000000478e-04 1.425000000000000051e-03 7.799999999999999859e-05 -6.546999999999999868e-03 6.780000000000000002e-04 7.100000000000000462e-05 -4.499999999999999877e-04 2.056000000000000102e-03 -2.400000000000000061e-05 -7.400999999999999593e-03 8.809999999999999472e-04 -2.699999999999999899e-05 6.452000000000000270e-03 -1.529999999999999893e-03 -1.369999999999999961e-04 7.098000000000000143e-03 -9.200000000000000278e-04 -2.480000000000000108e-04 5.029999999999999749e-04 1.709999999999999932e-03 -4.000000000000000327e-05 -6.681000000000000306e-03 5.159999999999999656e-04 -1.859999999999999945e-04 -5.130000000000000011e-04 1.991000000000000148e-03 -9.399999999999999448e-05 -7.452000000000000290e-03 7.900000000000000121e-04 2.300000000000000002e-05 6.550000000000000266e-03 -1.515000000000000071e-03 -3.399999999999999973e-05 7.245999999999999837e-03 -9.300000000000000541e-04 -8.899999999999999491e-05 5.150000000000000498e-04 1.446000000000000020e-03 -9.600000000000000243e-05 -6.610000000000000424e-03 6.579999999999999478e-04 -2.439999999999999949e-04 7.579999999999999932e-04 1.376999999999999969e-03 6.899999999999999667e-05 -5.654000000000000171e-03 1.100999999999999982e-03 -1.140000000000000063e-04 6.058000000000000017e-03 -9.200000000000000278e-04 -3.399999999999999973e-05 6.620000000000000016e-03 -8.069999999999999916e-04 -1.000000000000000048e-04 3.310000000000000225e-04 2.049000000000000040e-03 -1.800000000000000046e-05 -6.774999999999999772e-03 9.779999999999999197e-04 3.999999999999999819e-06 6.999999999999999929e-04 1.531000000000000026e-03 -1.540000000000000028e-04 -5.692000000000000011e-03 1.108000000000000044e-03 1.450000000000000009e-04 6.141999999999999890e-03 -9.330000000000000186e-04 3.999999999999999819e-06 6.891000000000000424e-03 -8.570000000000000144e-04 -7.600000000000000418e-05 3.480000000000000020e-04 1.961000000000000069e-03 -1.140000000000000063e-04 -6.904999999999999680e-03 7.320000000000000118e-04 -2.500000000000000120e-05 7.429999999999999539e-04 1.526000000000000013e-03 1.019999999999999992e-04 -5.705000000000000002e-03 1.030000000000000100e-03 2.900000000000000017e-05 6.209000000000000109e-03 -9.799999999999999684e-04 -6.499999999999999431e-05 6.689999999999999766e-03 -6.260000000000000373e-04 -6.099999999999999872e-05 3.710000000000000190e-04 1.793000000000000106e-03 5.399999999999999798e-05 -6.740000000000000331e-03 8.419999999999999750e-04 -1.079999999999999960e-04 3.469999999999999777e-04 5.069999999999999637e-04 -2.220000000000000022e-04 -6.496000000000000038e-03 2.154999999999999798e-03 -1.129999999999999955e-04 7.409999999999999920e-03 -2.971000000000000116e-03 7.999999999999999638e-06 6.484000000000000180e-03 -3.467000000000000030e-03 -3.999999999999999819e-06 6.099999999999999872e-05 8.040000000000000271e-04 -3.000000000000000076e-06 -6.728999999999999738e-03 1.802999999999999915e-03 2.300000000000000002e-05 2.489999999999999809e-04 5.419999999999999471e-04 1.990000000000000124e-04 -6.673000000000000112e-03 2.341999999999999898e-03 -2.099999999999999884e-05 7.357999999999999957e-03 -2.833000000000000015e-03 -5.399999999999999798e-05 6.446999999999999606e-03 -3.363000000000000104e-03 -1.330000000000000073e-04 -1.010000000000000020e-04 6.660000000000000338e-04 1.530000000000000056e-04 -6.723999999999999942e-03 1.832999999999999994e-03 -1.039999999999999936e-04 2.190000000000000106e-04 5.019999999999999506e-04 9.600000000000000243e-05 -6.516000000000000091e-03 2.145999999999999904e-03 2.599999999999999840e-05 7.249000000000000235e-03 -3.004000000000000160e-03 3.800000000000000209e-05 6.472999999999999587e-03 -3.288999999999999823e-03 -1.620000000000000075e-04 7.299999999999999903e-05 8.720000000000000537e-04 -2.570000000000000127e-04 -6.799999999999999621e-03 1.838999999999999923e-03 -2.429999999999999977e-04 -2.079999999999999872e-04 1.229999999999999974e-03 -3.339999999999999870e-04 -6.631999999999999874e-03 2.537000000000000192e-03 -4.600000000000000004e-05 7.159000000000000433e-03 -3.501000000000000206e-03 8.500000000000000611e-05 7.875000000000000056e-03 -3.170000000000000075e-03 3.899999999999999929e-05 6.589999999999999721e-04 8.499999999999999526e-04 -3.280000000000000038e-04 -5.473999999999999699e-03 2.145000000000000205e-03 -1.579999999999999916e-04 -4.600000000000000004e-05 9.730000000000000151e-04 2.420000000000000005e-04 -6.237000000000000356e-03 2.634000000000000057e-03 -6.499999999999999431e-05 7.080999999999999621e-03 -3.487000000000000082e-03 -1.579999999999999916e-04 7.877000000000000321e-03 -3.066000000000000149e-03 -1.430000000000000064e-04 5.969999999999999829e-04 1.072000000000000036e-03 2.919999999999999961e-04 -5.239999999999999866e-03 2.024000000000000191e-03 1.459999999999999981e-04 -4.199999999999999768e-05 1.198000000000000063e-03 -1.240000000000000054e-04 -6.370999999999999927e-03 2.631000000000000092e-03 7.299999999999999903e-05 7.081999999999999754e-03 -3.389999999999999784e-03 -1.500000000000000038e-05 7.835999999999999216e-03 -3.003000000000000027e-03 -1.350000000000000017e-04 5.460000000000000443e-04 1.007999999999999998e-03 -7.200000000000000182e-05 -5.205000000000000425e-03 2.089999999999999844e-03 -7.799999999999999859e-05 5.039999999999999992e-04 6.250000000000000130e-04 -2.390000000000000089e-04 -5.683999999999999816e-03 1.649999999999999991e-03 -2.139999999999999975e-04 6.472999999999999587e-03 -3.663000000000000023e-03 -9.399999999999999448e-05 6.699000000000000093e-03 -3.494000000000000144e-03 5.399999999999999798e-05 -2.730000000000000222e-04 7.219999999999999855e-04 4.100000000000000047e-05 -6.826999999999999735e-03 1.907000000000000058e-03 -1.110000000000000011e-04 4.640000000000000027e-04 7.110000000000000434e-04 9.799999999999999684e-05 -5.738000000000000045e-03 1.428000000000000016e-03 -7.799999999999999859e-05 6.622000000000000282e-03 -3.573999999999999920e-03 5.000000000000000240e-05 6.624999999999999813e-03 -3.373999999999999829e-03 -3.000000000000000076e-05 -1.689999999999999879e-04 6.840000000000000377e-04 1.100000000000000039e-04 -6.731000000000000004e-03 1.964000000000000034e-03 -1.759999999999999954e-04 5.680000000000000370e-04 7.200000000000000453e-04 5.599999999999999916e-05 -5.511000000000000273e-03 1.448999999999999984e-03 2.229999999999999994e-04 6.649999999999999661e-03 -3.596999999999999937e-03 3.499999999999999693e-05 6.777000000000000038e-03 -3.367999999999999900e-03 -2.310000000000000042e-04 -2.610000000000000015e-04 6.750000000000000357e-04 -1.749999999999999982e-04 -6.570999999999999584e-03 2.020000000000000094e-03 6.999999999999999387e-05 5.270000000000000162e-04 6.350000000000000392e-04 1.510000000000000112e-04 -7.187999999999999945e-03 1.175000000000000046e-03 -3.999999999999999819e-06 6.833999999999999797e-03 -2.076999999999999853e-03 -1.069999999999999988e-04 5.564999999999999634e-03 -2.413999999999999913e-03 -6.399999999999999710e-05 4.099999999999999912e-04 1.520000000000000084e-04 1.849999999999999973e-04 -7.002999999999999677e-03 1.843999999999999936e-03 -1.389999999999999905e-04 4.870000000000000197e-04 6.620000000000000450e-04 1.039999999999999936e-04 -7.289000000000000340e-03 1.358999999999999965e-03 2.300000000000000002e-05 6.695999999999999695e-03 -2.226999999999999813e-03 4.500000000000000283e-05 5.335000000000000332e-03 -2.134000000000000046e-03 -1.910000000000000077e-04 5.240000000000000517e-04 2.700000000000000035e-04 -1.520000000000000084e-04 -7.039000000000000118e-03 1.933999999999999955e-03 -1.489999999999999897e-04 4.920000000000000328e-04 6.489999999999999459e-04 -2.030000000000000012e-04 -7.084000000000000019e-03 1.234000000000000071e-03 -8.299999999999999815e-05 6.798000000000000223e-03 -2.178999999999999947e-03 -3.800000000000000209e-05 5.461999999999999841e-03 -2.549000000000000050e-03 -3.399999999999999973e-05 6.560000000000000076e-04 2.210000000000000050e-04 -2.599999999999999840e-05 -7.157000000000000167e-03 1.750999999999999952e-03 -9.200000000000000007e-05 1.949999999999999965e-04 7.739999999999999485e-04 1.640000000000000019e-04 -7.255000000000000164e-03 1.234999999999999987e-03 3.999999999999999819e-06 5.834999999999999909e-03 -2.565000000000000006e-03 3.699999999999999811e-05 6.533999999999999878e-03 -2.246999999999999865e-03 9.500000000000000523e-05 1.620000000000000075e-04 6.639999999999999852e-04 6.899999999999999667e-05 -5.540999999999999918e-03 7.579999999999999932e-04 -1.240000000000000054e-04 2.020000000000000040e-04 9.269999999999999811e-04 -7.799999999999999859e-05 -7.233999999999999979e-03 1.304000000000000038e-03 1.749999999999999982e-04 5.793000000000000406e-03 -2.821000000000000157e-03 8.899999999999999491e-05 6.512999999999999692e-03 -2.315999999999999916e-03 -2.770000000000000110e-04 2.610000000000000015e-04 6.819999999999999890e-04 -3.000000000000000076e-06 -5.553999999999999909e-03 8.700000000000000051e-04 -5.399999999999999798e-05 2.139999999999999975e-04 8.819999999999999715e-04 -2.469999999999999865e-04 -7.398000000000000062e-03 1.172000000000000082e-03 -8.899999999999999491e-05 5.694000000000000276e-03 -2.877999999999999916e-03 -9.299999999999999727e-05 6.330999999999999822e-03 -2.354000000000000190e-03 2.900000000000000017e-05 1.340000000000000045e-04 6.449999999999999570e-04 -1.160000000000000007e-04 -5.406000000000000215e-03 8.989999999999999511e-04 2.300000000000000002e-05 3.550000000000000096e-04 6.549999999999999833e-04 -6.499999999999999431e-05 -5.424000000000000002e-03 1.402000000000000034e-03 2.900000000000000017e-05 5.460999999999999709e-03 -2.601000000000000013e-03 -1.299999999999999886e-04 6.326000000000000026e-03 -2.193000000000000071e-03 -4.100000000000000047e-05 1.350000000000000017e-04 1.338999999999999913e-03 1.800000000000000113e-04 -7.164000000000000229e-03 1.165999999999999936e-03 -8.500000000000000611e-05 1.900000000000000105e-04 5.060000000000000478e-04 -4.000000000000000327e-05 -5.359000000000000048e-03 1.515999999999999986e-03 7.100000000000000462e-05 5.334000000000000200e-03 -2.472999999999999938e-03 1.000000000000000048e-04 6.353000000000000140e-03 -2.020000000000000094e-03 -5.000000000000000240e-05 1.559999999999999972e-04 1.387999999999999911e-03 -4.699999999999999724e-05 -7.080999999999999621e-03 1.097000000000000102e-03 -2.100000000000000087e-04 4.099999999999999912e-04 7.590000000000000175e-04 5.399999999999999798e-05 -5.406000000000000215e-03 1.464999999999999939e-03 5.399999999999999798e-05 5.374999999999999570e-03 -2.435000000000000098e-03 3.300000000000000253e-05 6.265999999999999868e-03 -2.150000000000000001e-03 -1.740000000000000010e-04 1.510000000000000112e-04 1.378000000000000102e-03 -4.600000000000000004e-05 -6.878999999999999698e-03 1.178999999999999927e-03