-1.412881123079999952e+03
-1.412881124129999989e+03
-1.412881126199999926e+03
-1.412881129359999932e+03
-1.412881133719999980e+03
