9.149441839999999715e+00 0.000000000000000000e+00 0.000000000000000000e+00 0.000000000000000000e+00 1.663966376000000125e+01 0.000000000000000000e+00 0.000000000000000000e+00 0.000000000000000000e+00 2.128390425999999991e+01
9.149441839999999715e+00 0.000000000000000000e+00 0.000000000000000000e+00 0.000000000000000000e+00 1.663966376000000125e+01 0.000000000000000000e+00 0.000000000000000000e+00 0.000000000000000000e+00 2.128390425999999991e+01
9.149441839999999715e+00 0.000000000000000000e+00 0.000000000000000000e+00 0.000000000000000000e+00 1.663966376000000125e+01 0.000000000000000000e+00 0.000000000000000000e+00 0.000000000000000000e+00 2.128390425999999991e+01
9.149441839999999715e+00 0.000000000000000000e+00 0.000000000000000000e+00 0.000000000000000000e+00 1.663966376000000125e+01 0.000000000000000000e+00 0.000000000000000000e+00 0.000000000000000000e+00 2.128390425999999991e+01
9.149441839999999715e+00 0.000000000000000000e+00 0.000000000000000000e+00 0.000000000000000000e+00 1.663966376000000125e+01 0.000000000000000000e+00 0.000000000000000000e+00 0.000000000000000000e+00 2.128390425999999991e+01
