1.299999999999999886e-04 5.029999999999999749e-03 4.803790000000000227e+00 1.525030000000000108e+00 2.778309999999999835e+00 4.803779999999999717e+00 1.100000000000000039e-04 3.692610000000000170e+00 2.263049999999999784e+00 1.525020000000000042e+00 9.193299999999999805e-01 2.263049999999999784e+00 3.049939999999999873e+00 5.029999999999999749e-03 4.803790000000000227e+00 4.574840000000000018e+00 2.778309999999999835e+00 4.803779999999999717e+00 3.049920000000000186e+00 3.692610000000000170e+00 2.263049999999999784e+00 4.574830000000000396e+00 9.193299999999999805e-01 2.263049999999999784e+00 6.099750000000000227e+00 5.029999999999999749e-03 4.803790000000000227e+00 7.624660000000000437e+00 2.778309999999999835e+00 4.803779999999999717e+00 6.099739999999999718e+00 3.692610000000000170e+00 2.263049999999999784e+00 7.624649999999999928e+00 9.193299999999999805e-01 2.263049999999999784e+00 1.299999999999999886e-04 5.551590000000000025e+00 4.803790000000000227e+00 1.525030000000000108e+00 8.324859999999999260e+00 4.803779999999999717e+00 1.100000000000000039e-04 9.239160000000000039e+00 2.263049999999999784e+00 1.525020000000000042e+00 6.465880000000000294e+00 2.263049999999999784e+00 3.049939999999999873e+00 5.551590000000000025e+00 4.803790000000000227e+00 4.574840000000000018e+00 8.324859999999999260e+00 4.803779999999999717e+00 3.049920000000000186e+00 9.239160000000000039e+00 2.263049999999999784e+00 4.574830000000000396e+00 6.465880000000000294e+00 2.263049999999999784e+00 6.099750000000000227e+00 5.551590000000000025e+00 4.803790000000000227e+00 7.624660000000000437e+00 8.324859999999999260e+00 4.803779999999999717e+00 6.099739999999999718e+00 9.239160000000000039e+00 2.263049999999999784e+00 7.624649999999999928e+00 6.465880000000000294e+00 2.263049999999999784e+00 1.299999999999999886e-04 1.109814000000000078e+01 4.803790000000000227e+00 1.525030000000000108e+00 1.387142000000000053e+01 4.803779999999999717e+00 1.100000000000000039e-04 1.478571999999999953e+01 2.263049999999999784e+00 1.525020000000000042e+00 1.201243999999999978e+01 2.263049999999999784e+00 3.049939999999999873e+00 1.109814000000000078e+01 4.803790000000000227e+00 4.574840000000000018e+00 1.387142000000000053e+01 4.803779999999999717e+00 3.049920000000000186e+00 1.478571999999999953e+01 2.263049999999999784e+00 4.574830000000000396e+00 1.201243999999999978e+01 2.263049999999999784e+00 6.099750000000000227e+00 1.109814000000000078e+01 4.803790000000000227e+00 7.624660000000000437e+00 1.387142000000000053e+01 4.803779999999999717e+00 6.099739999999999718e+00 1.478571999999999953e+01 2.263049999999999784e+00 7.624649999999999928e+00 1.201243999999999978e+01 2.263049999999999784e+00 1.299999999999999886e-04 5.029999999999999749e-03 1.189841999999999977e+01 1.525030000000000108e+00 2.778309999999999835e+00 1.189841999999999977e+01 1.100000000000000039e-04 3.692610000000000170e+00 9.357680000000000220e+00 1.525020000000000042e+00 9.193299999999999805e-01 9.357680000000000220e+00 3.049939999999999873e+00 5.029999999999999749e-03 1.189841999999999977e+01 4.574840000000000018e+00 2.778309999999999835e+00 1.189841999999999977e+01 3.049920000000000186e+00 3.692610000000000170e+00 9.357680000000000220e+00 4.574830000000000396e+00 9.193299999999999805e-01 9.357680000000000220e+00 6.099750000000000227e+00 5.029999999999999749e-03 1.189841999999999977e+01 7.624660000000000437e+00 2.778309999999999835e+00 1.189841999999999977e+01 6.099739999999999718e+00 3.692610000000000170e+00 9.357680000000000220e+00 7.624649999999999928e+00 9.193299999999999805e-01 9.357680000000000220e+00 1.299999999999999886e-04 5.551590000000000025e+00 1.189841999999999977e+01 1.525030000000000108e+00 8.324859999999999260e+00 1.189841999999999977e+01 1.100000000000000039e-04 9.239160000000000039e+00 9.357680000000000220e+00 1.525020000000000042e+00 6.465880000000000294e+00 9.357680000000000220e+00 3.049939999999999873e+00 5.551590000000000025e+00 1.189841999999999977e+01 4.574840000000000018e+00 8.324859999999999260e+00 1.189841999999999977e+01 3.049920000000000186e+00 9.239160000000000039e+00 9.357680000000000220e+00 4.574830000000000396e+00 6.465880000000000294e+00 9.357680000000000220e+00 6.099750000000000227e+00 5.551590000000000025e+00 1.189841999999999977e+01 7.624660000000000437e+00 8.324859999999999260e+00 1.189841999999999977e+01 6.099739999999999718e+00 9.239160000000000039e+00 9.357680000000000220e+00 7.624649999999999928e+00 6.465880000000000294e+00 9.357680000000000220e+00 1.299999999999999886e-04 1.109814000000000078e+01 1.189841999999999977e+01 1.525030000000000108e+00 1.387142000000000053e+01 1.189841999999999977e+01 1.100000000000000039e-04 1.478571999999999953e+01 9.357680000000000220e+00 1.525020000000000042e+00 1.201243999999999978e+01 9.357680000000000220e+00 3.049939999999999873e+00 1.109814000000000078e+01 1.189841999999999977e+01 4.574840000000000018e+00 1.387142000000000053e+01 1.189841999999999977e+01 3.049920000000000186e+00 1.478571999999999953e+01 9.357680000000000220e+00 4.574830000000000396e+00 1.201243999999999978e+01 9.357680000000000220e+00 6.099750000000000227e+00 1.109814000000000078e+01 1.189841999999999977e+01 7.624660000000000437e+00 1.387142000000000053e+01 1.189841999999999977e+01 6.099739999999999718e+00 1.478571999999999953e+01 9.357680000000000220e+00 7.624649999999999928e+00 1.201243999999999978e+01 9.357680000000000220e+00 1.299999999999999886e-04 5.029999999999999749e-03 1.899305999999999983e+01 1.525030000000000108e+00 2.778309999999999835e+00 1.899305000000000021e+01 1.100000000000000039e-04 3.692610000000000170e+00 1.645232000000000028e+01 1.525020000000000042e+00 9.193299999999999805e-01 1.645232000000000028e+01 3.049939999999999873e+00 5.029999999999999749e-03 1.899305999999999983e+01 4.574840000000000018e+00 2.778309999999999835e+00 1.899305000000000021e+01 3.049920000000000186e+00 3.692610000000000170e+00 1.645232000000000028e+01 4.574830000000000396e+00 9.193299999999999805e-01 1.645232000000000028e+01 6.099750000000000227e+00 5.029999999999999749e-03 1.899305999999999983e+01 7.624660000000000437e+00 2.778309999999999835e+00 1.899305000000000021e+01 6.099739999999999718e+00 3.692610000000000170e+00 1.645232000000000028e+01 7.624649999999999928e+00 9.193299999999999805e-01 1.645232000000000028e+01 1.299999999999999886e-04 5.551590000000000025e+00 1.899305999999999983e+01 1.525030000000000108e+00 8.324859999999999260e+00 1.899305000000000021e+01 1.100000000000000039e-04 9.239160000000000039e+00 1.645232000000000028e+01 1.525020000000000042e+00 6.465880000000000294e+00 1.645232000000000028e+01 3.049939999999999873e+00 5.551590000000000025e+00 1.899305999999999983e+01 4.574840000000000018e+00 8.324859999999999260e+00 1.899305000000000021e+01 3.049920000000000186e+00 9.239160000000000039e+00 1.645232000000000028e+01 4.574830000000000396e+00 6.465880000000000294e+00 1.645232000000000028e+01 6.099750000000000227e+00 5.551590000000000025e+00 1.899305999999999983e+01 7.624660000000000437e+00 8.324859999999999260e+00 1.899305000000000021e+01 6.099739999999999718e+00 9.239160000000000039e+00 1.645232000000000028e+01 7.624649999999999928e+00 6.465880000000000294e+00 1.645232000000000028e+01 1.299999999999999886e-04 1.109814000000000078e+01 1.899305999999999983e+01 1.525030000000000108e+00 1.387142000000000053e+01 1.899305000000000021e+01 1.100000000000000039e-04 1.478571999999999953e+01 1.645232000000000028e+01 1.525020000000000042e+00 1.201243999999999978e+01 1.645232000000000028e+01 3.049939999999999873e+00 1.109814000000000078e+01 1.899305999999999983e+01 4.574840000000000018e+00 1.387142000000000053e+01 1.899305000000000021e+01 3.049920000000000186e+00 1.478571999999999953e+01 1.645232000000000028e+01 4.574830000000000396e+00 1.201243999999999978e+01 1.645232000000000028e+01 6.099750000000000227e+00 1.109814000000000078e+01 1.899305999999999983e+01 7.624660000000000437e+00 1.387142000000000053e+01 1.899305000000000021e+01 6.099739999999999718e+00 1.478571999999999953e+01 1.645232000000000028e+01 7.624649999999999928e+00 1.201243999999999978e+01 1.645232000000000028e+01 1.399999999999999877e-04 1.848789999999999933e+00 3.533490000000000020e+00 1.399999999999999877e-04 3.719430000000000014e+00 5.837119999999999642e+00 1.525030000000000108e+00 2.751440000000000108e+00 1.229759999999999964e+00 1.200000000000000030e-04 5.524720000000000297e+00 1.229759999999999964e+00 1.525039999999999951e+00 4.622080000000000410e+00 3.533479999999999954e+00 1.525039999999999951e+00 9.461500000000000465e-01 5.837130000000000152e+00 3.049949999999999939e+00 1.848789999999999933e+00 3.533490000000000020e+00 3.049949999999999939e+00 3.719430000000000014e+00 5.837119999999999642e+00 4.574840000000000018e+00 2.751440000000000108e+00 1.229759999999999964e+00 3.049929999999999808e+00 5.524720000000000297e+00 1.229759999999999964e+00 4.574860000000000149e+00 4.622080000000000410e+00 3.533479999999999954e+00 4.574860000000000149e+00 9.461500000000000465e-01 5.837130000000000152e+00 6.099770000000000358e+00 1.848789999999999933e+00 3.533490000000000020e+00 6.099759999999999849e+00 3.719430000000000014e+00 5.837119999999999642e+00 7.624649999999999928e+00 2.751440000000000108e+00 1.229759999999999964e+00 6.099750000000000227e+00 5.524720000000000297e+00 1.229759999999999964e+00 7.624670000000000059e+00 4.622080000000000410e+00 3.533479999999999954e+00 7.624670000000000059e+00 9.461500000000000465e-01 5.837130000000000152e+00 1.399999999999999877e-04 7.395349999999999646e+00 3.533490000000000020e+00 1.399999999999999877e-04 9.265980000000000771e+00 5.837119999999999642e+00 1.525030000000000108e+00 8.297990000000000421e+00 1.229759999999999964e+00 1.200000000000000030e-04 1.107127000000000017e+01 1.229759999999999964e+00 1.525039999999999951e+00 1.016863000000000028e+01 3.533479999999999954e+00 1.525039999999999951e+00 6.492709999999999759e+00 5.837130000000000152e+00 3.049949999999999939e+00 7.395349999999999646e+00 3.533490000000000020e+00 3.049949999999999939e+00 9.265980000000000771e+00 5.837119999999999642e+00 4.574840000000000018e+00 8.297990000000000421e+00 1.229759999999999964e+00 3.049929999999999808e+00 1.107127000000000017e+01 1.229759999999999964e+00 4.574860000000000149e+00 1.016863000000000028e+01 3.533479999999999954e+00 4.574860000000000149e+00 6.492709999999999759e+00 5.837130000000000152e+00 6.099770000000000358e+00 7.395349999999999646e+00 3.533490000000000020e+00 6.099759999999999849e+00 9.265980000000000771e+00 5.837119999999999642e+00 7.624649999999999928e+00 8.297990000000000421e+00 1.229759999999999964e+00 6.099750000000000227e+00 1.107127000000000017e+01 1.229759999999999964e+00 7.624670000000000059e+00 1.016863000000000028e+01 3.533479999999999954e+00 7.624670000000000059e+00 6.492709999999999759e+00 5.837130000000000152e+00 1.399999999999999877e-04 1.294190000000000040e+01 3.533490000000000020e+00 1.399999999999999877e-04 1.481254000000000026e+01 5.837119999999999642e+00 1.525030000000000108e+00 1.384454999999999991e+01 1.229759999999999964e+00 1.200000000000000030e-04 1.661783000000000143e+01 1.229759999999999964e+00 1.525039999999999951e+00 1.571518999999999977e+01 3.533479999999999954e+00 1.525039999999999951e+00 1.203926000000000052e+01 5.837130000000000152e+00 3.049949999999999939e+00 1.294190000000000040e+01 3.533490000000000020e+00 3.049949999999999939e+00 1.481254000000000026e+01 5.837119999999999642e+00 4.574840000000000018e+00 1.384454999999999991e+01 1.229759999999999964e+00 3.049929999999999808e+00 1.661783000000000143e+01 1.229759999999999964e+00 4.574860000000000149e+00 1.571518999999999977e+01 3.533479999999999954e+00 4.574860000000000149e+00 1.203926000000000052e+01 5.837130000000000152e+00 6.099770000000000358e+00 1.294190000000000040e+01 3.533490000000000020e+00 6.099759999999999849e+00 1.481254000000000026e+01 5.837119999999999642e+00 7.624649999999999928e+00 1.384454999999999991e+01 1.229759999999999964e+00 6.099750000000000227e+00 1.661783000000000143e+01 1.229759999999999964e+00 7.624670000000000059e+00 1.571518999999999977e+01 3.533479999999999954e+00 7.624670000000000059e+00 1.203926000000000052e+01 5.837130000000000152e+00 1.399999999999999877e-04 1.848789999999999933e+00 1.062811999999999912e+01 1.399999999999999877e-04 3.719430000000000014e+00 1.293174999999999919e+01 1.525030000000000108e+00 2.751440000000000108e+00 8.324389999999999290e+00 1.200000000000000030e-04 5.524720000000000297e+00 8.324389999999999290e+00 1.525039999999999951e+00 4.622080000000000410e+00 1.062810999999999950e+01 1.525039999999999951e+00 9.461500000000000465e-01 1.293176000000000059e+01 3.049949999999999939e+00 1.848789999999999933e+00 1.062811999999999912e+01 3.049949999999999939e+00 3.719430000000000014e+00 1.293174999999999919e+01 4.574840000000000018e+00 2.751440000000000108e+00 8.324389999999999290e+00 3.049929999999999808e+00 5.524720000000000297e+00 8.324389999999999290e+00 4.574860000000000149e+00 4.622080000000000410e+00 1.062810999999999950e+01 4.574860000000000149e+00 9.461500000000000465e-01 1.293176000000000059e+01 6.099770000000000358e+00 1.848789999999999933e+00 1.062811999999999912e+01 6.099759999999999849e+00 3.719430000000000014e+00 1.293174999999999919e+01 7.624649999999999928e+00 2.751440000000000108e+00 8.324389999999999290e+00 6.099750000000000227e+00 5.524720000000000297e+00 8.324389999999999290e+00 7.624670000000000059e+00 4.622080000000000410e+00 1.062810999999999950e+01 7.624670000000000059e+00 9.461500000000000465e-01 1.293176000000000059e+01 1.399999999999999877e-04 7.395349999999999646e+00 1.062811999999999912e+01 1.399999999999999877e-04 9.265980000000000771e+00 1.293174999999999919e+01 1.525030000000000108e+00 8.297990000000000421e+00 8.324389999999999290e+00 1.200000000000000030e-04 1.107127000000000017e+01 8.324389999999999290e+00 1.525039999999999951e+00 1.016863000000000028e+01 1.062810999999999950e+01 1.525039999999999951e+00 6.492709999999999759e+00 1.293176000000000059e+01 3.049949999999999939e+00 7.395349999999999646e+00 1.062811999999999912e+01 3.049949999999999939e+00 9.265980000000000771e+00 1.293174999999999919e+01 4.574840000000000018e+00 8.297990000000000421e+00 8.324389999999999290e+00 3.049929999999999808e+00 1.107127000000000017e+01 8.324389999999999290e+00 4.574860000000000149e+00 1.016863000000000028e+01 1.062810999999999950e+01 4.574860000000000149e+00 6.492709999999999759e+00 1.293176000000000059e+01 6.099770000000000358e+00 7.395349999999999646e+00 1.062811999999999912e+01 6.099759999999999849e+00 9.265980000000000771e+00 1.293174999999999919e+01 7.624649999999999928e+00 8.297990000000000421e+00 8.324389999999999290e+00 6.099750000000000227e+00 1.107127000000000017e+01 8.324389999999999290e+00 7.624670000000000059e+00 1.016863000000000028e+01 1.062810999999999950e+01 7.624670000000000059e+00 6.492709999999999759e+00 1.293176000000000059e+01 1.399999999999999877e-04 1.294190000000000040e+01 1.062811999999999912e+01 1.399999999999999877e-04 1.481254000000000026e+01 1.293174999999999919e+01 1.525030000000000108e+00 1.384454999999999991e+01 8.324389999999999290e+00 1.200000000000000030e-04 1.661783000000000143e+01 8.324389999999999290e+00 1.525039999999999951e+00 1.571518999999999977e+01 1.062810999999999950e+01 1.525039999999999951e+00 1.203926000000000052e+01 1.293176000000000059e+01 3.049949999999999939e+00 1.294190000000000040e+01 1.062811999999999912e+01 3.049949999999999939e+00 1.481254000000000026e+01 1.293174999999999919e+01 4.574840000000000018e+00 1.384454999999999991e+01 8.324389999999999290e+00 3.049929999999999808e+00 1.661783000000000143e+01 8.324389999999999290e+00 4.574860000000000149e+00 1.571518999999999977e+01 1.062810999999999950e+01 4.574860000000000149e+00 1.203926000000000052e+01 1.293176000000000059e+01 6.099770000000000358e+00 1.294190000000000040e+01 1.062811999999999912e+01 6.099759999999999849e+00 1.481254000000000026e+01 1.293174999999999919e+01 7.624649999999999928e+00 1.384454999999999991e+01 8.324389999999999290e+00 6.099750000000000227e+00 1.661783000000000143e+01 8.324389999999999290e+00 7.624670000000000059e+00 1.571518999999999977e+01 1.062810999999999950e+01 7.624670000000000059e+00 1.203926000000000052e+01 1.293176000000000059e+01 1.399999999999999877e-04 1.848789999999999933e+00 1.772276000000000096e+01 1.399999999999999877e-04 3.719430000000000014e+00 2.002638999999999925e+01 1.525030000000000108e+00 2.751440000000000108e+00 1.541902999999999935e+01 1.200000000000000030e-04 5.524720000000000297e+00 1.541902999999999935e+01 1.525039999999999951e+00 4.622080000000000410e+00 1.772275000000000134e+01 1.525039999999999951e+00 9.461500000000000465e-01 2.002639999999999887e+01 3.049949999999999939e+00 1.848789999999999933e+00 1.772276000000000096e+01 3.049949999999999939e+00 3.719430000000000014e+00 2.002638999999999925e+01 4.574840000000000018e+00 2.751440000000000108e+00 1.541902999999999935e+01 3.049929999999999808e+00 5.524720000000000297e+00 1.541902999999999935e+01 4.574860000000000149e+00 4.622080000000000410e+00 1.772275000000000134e+01 4.574860000000000149e+00 9.461500000000000465e-01 2.002639999999999887e+01 6.099770000000000358e+00 1.848789999999999933e+00 1.772276000000000096e+01 6.099759999999999849e+00 3.719430000000000014e+00 2.002638999999999925e+01 7.624649999999999928e+00 2.751440000000000108e+00 1.541902999999999935e+01 6.099750000000000227e+00 5.524720000000000297e+00 1.541902999999999935e+01 7.624670000000000059e+00 4.622080000000000410e+00 1.772275000000000134e+01 7.624670000000000059e+00 9.461500000000000465e-01 2.002639999999999887e+01 1.399999999999999877e-04 7.395349999999999646e+00 1.772276000000000096e+01 1.399999999999999877e-04 9.265980000000000771e+00 2.002638999999999925e+01 1.525030000000000108e+00 8.297990000000000421e+00 1.541902999999999935e+01 1.200000000000000030e-04 1.107127000000000017e+01 1.541902999999999935e+01 1.525039999999999951e+00 1.016863000000000028e+01 1.772275000000000134e+01 1.525039999999999951e+00 6.492709999999999759e+00 2.002639999999999887e+01 3.049949999999999939e+00 7.395349999999999646e+00 1.772276000000000096e+01 3.049949999999999939e+00 9.265980000000000771e+00 2.002638999999999925e+01 4.574840000000000018e+00 8.297990000000000421e+00 1.541902999999999935e+01 3.049929999999999808e+00 1.107127000000000017e+01 1.541902999999999935e+01 4.574860000000000149e+00 1.016863000000000028e+01 1.772275000000000134e+01 4.574860000000000149e+00 6.492709999999999759e+00 2.002639999999999887e+01 6.099770000000000358e+00 7.395349999999999646e+00 1.772276000000000096e+01 6.099759999999999849e+00 9.265980000000000771e+00 2.002638999999999925e+01 7.624649999999999928e+00 8.297990000000000421e+00 1.541902999999999935e+01 6.099750000000000227e+00 1.107127000000000017e+01 1.541902999999999935e+01 7.624670000000000059e+00 1.016863000000000028e+01 1.772275000000000134e+01 7.624670000000000059e+00 6.492709999999999759e+00 2.002639999999999887e+01 1.399999999999999877e-04 1.294190000000000040e+01 1.772276000000000096e+01 1.399999999999999877e-04 1.481254000000000026e+01 2.002638999999999925e+01 1.525030000000000108e+00 1.384454999999999991e+01 1.541902999999999935e+01 1.200000000000000030e-04 1.661783000000000143e+01 1.541902999999999935e+01 1.525039999999999951e+00 1.571518999999999977e+01 1.772275000000000134e+01 1.525039999999999951e+00 1.203926000000000052e+01 2.002639999999999887e+01 3.049949999999999939e+00 1.294190000000000040e+01 1.772276000000000096e+01 3.049949999999999939e+00 1.481254000000000026e+01 2.002638999999999925e+01 4.574840000000000018e+00 1.384454999999999991e+01 1.541902999999999935e+01 3.049929999999999808e+00 1.661783000000000143e+01 1.541902999999999935e+01 4.574860000000000149e+00 1.571518999999999977e+01 1.772275000000000134e+01 4.574860000000000149e+00 1.203926000000000052e+01 2.002639999999999887e+01 6.099770000000000358e+00 1.294190000000000040e+01 1.772276000000000096e+01 6.099759999999999849e+00 1.481254000000000026e+01 2.002638999999999925e+01 7.624649999999999928e+00 1.384454999999999991e+01 1.541902999999999935e+01 6.099750000000000227e+00 1.661783000000000143e+01 1.541902999999999935e+01 7.624670000000000059e+00 1.571518999999999977e+01 1.772275000000000134e+01 7.624670000000000059e+00 1.203926000000000052e+01 2.002639999999999887e+01