-2.820959582670000145e+03
-2.820922921939999924e+03
-2.820813334989999930e+03
-2.820631639929999892e+03
-2.820379072870000073e+03
