1.700000000000000122e-04 -6.769999999999999759e-04 -1.789000000000000009e-03 2.570000000000000127e-04 -7.399999999999999623e-05 -2.333000000000000004e-03 2.500000000000000052e-04 1.500000000000000038e-05 2.657000000000000074e-03 1.200000000000000030e-05 1.019999999999999992e-04 2.121000000000000055e-03 3.800000000000000209e-05 -2.779999999999999811e-04 -1.266999999999999897e-03 1.100000000000000039e-04 1.969999999999999909e-04 -2.256999999999999892e-03 -6.220000000000000485e-04 -3.860000000000000041e-04 2.870999999999999854e-03 3.220000000000000206e-04 2.099999999999999884e-05 2.784000000000000016e-03 1.939999999999999993e-04 -2.180000000000000134e-04 -1.356999999999999916e-03 2.229999999999999994e-04 -2.799999999999999958e-05 -2.308000000000000156e-03 1.115000000000000106e-03 -3.150000000000000131e-04 2.844000000000000174e-03 4.749999999999999990e-04 1.090000000000000067e-04 2.085000000000000048e-03 1.789999999999999870e-04 -2.759999999999999867e-04 -2.915000000000000056e-03 1.749999999999999982e-04 -3.060000000000000111e-04 -1.397000000000000021e-03 2.930000000000000204e-04 -6.600000000000000506e-05 2.818000000000000192e-03 2.849999999999999886e-04 -8.360000000000000460e-04 2.736000000000000151e-03 3.939999999999999817e-04 4.580000000000000195e-04 -2.226999999999999813e-03 1.969999999999999909e-04 -7.849999999999999990e-04 -1.845000000000000069e-03 4.279999999999999950e-04 1.500000000000000038e-05 2.167999999999999788e-03 2.829999999999999942e-04 -8.379999999999999862e-04 2.812999999999999962e-03 -8.899999999999999491e-05 4.989999999999999861e-04 -2.150000000000000001e-03 1.330000000000000073e-04 -3.959999999999999762e-04 -1.325000000000000006e-03 3.800000000000000209e-05 1.800000000000000046e-05 2.155999999999999930e-03 1.459999999999999981e-04 -9.890000000000000787e-04 2.769000000000000194e-03 1.079999999999999960e-04 3.999999999999999819e-06 -2.406999999999999851e-03 -1.259999999999999998e-04 5.720000000000000258e-04 -2.174000000000000151e-03 2.460000000000000164e-04 -8.329999999999999731e-04 2.699000000000000010e-03 1.074000000000000085e-03 -3.289999999999999739e-04 2.824999999999999820e-03 1.389999999999999905e-04 -2.259999999999999910e-04 -2.443999999999999992e-03 2.339999999999999958e-04 -1.730000000000000038e-04 -2.931000000000000012e-03 9.299999999999999727e-05 -1.005999999999999950e-03 2.664999999999999834e-03 3.110000000000000243e-04 -2.400000000000000061e-05 2.641999999999999817e-03 2.400000000000000061e-04 -2.400000000000000061e-04 -2.511999999999999910e-03 4.749999999999999990e-04 5.680000000000000370e-04 -2.219000000000000052e-03 3.310000000000000225e-04 -8.210000000000000067e-04 2.605999999999999810e-03 -5.879999999999999810e-04 -3.939999999999999817e-04 2.874999999999999951e-03 1.810000000000000085e-04 -8.869999999999999846e-04 -1.650999999999999907e-03 2.159999999999999919e-04 -1.569999999999999944e-04 -2.299999999999999961e-03 2.200000000000000078e-04 1.399999999999999979e-05 2.376000000000000074e-03 4.899999999999999842e-05 6.899999999999999667e-05 1.984999999999999785e-03 1.200000000000000030e-05 -4.989999999999999861e-04 -1.175999999999999962e-03 1.589999999999999888e-04 1.430000000000000064e-04 -2.229000000000000078e-03 -6.109999999999999980e-04 -3.269999999999999795e-04 2.549000000000000050e-03 2.900000000000000017e-04 -1.000000000000000082e-05 2.634000000000000057e-03 2.159999999999999919e-04 -4.479999999999999933e-04 -1.245999999999999929e-03 2.180000000000000134e-04 -9.600000000000000243e-05 -2.249000000000000131e-03 1.124999999999999915e-03 -2.599999999999999772e-04 2.541999999999999989e-03 4.760000000000000234e-04 1.179999999999999951e-04 1.998000000000000210e-03 1.269999999999999970e-04 -1.410000000000000120e-04 -2.805999999999999901e-03 2.420000000000000005e-04 -2.820000000000000241e-04 -1.288999999999999998e-03 2.339999999999999958e-04 -1.269999999999999970e-04 2.598000000000000049e-03 3.539999999999999853e-04 -8.989999999999999511e-04 2.426999999999999904e-03 4.260000000000000006e-04 5.959999999999999586e-04 -2.138999999999999842e-03 2.329999999999999986e-04 -7.129999999999999836e-04 -1.722999999999999922e-03 5.109999999999999525e-04 -1.800000000000000046e-05 1.928999999999999942e-03 2.919999999999999961e-04 -8.620000000000000275e-04 2.451000000000000054e-03 -6.099999999999999872e-05 6.419999999999999925e-04 -2.073000000000000190e-03 1.599999999999999928e-05 -3.770000000000000022e-04 -1.244000000000000097e-03 1.200000000000000030e-05 -5.500000000000000196e-05 1.920000000000000049e-03 7.200000000000000182e-05 -1.020999999999999989e-03 2.449999999999999921e-03 9.500000000000000523e-05 1.820000000000000057e-04 -2.220999999999999884e-03 -1.320000000000000101e-04 6.669999999999999497e-04 -1.941999999999999933e-03 2.069999999999999900e-04 -9.060000000000000128e-04 2.622999999999999898e-03 1.105999999999999995e-03 -2.180000000000000134e-04 2.713000000000000134e-03 1.630000000000000047e-04 -8.799999999999999771e-05 -2.298000000000000129e-03 2.739999999999999923e-04 -1.079999999999999960e-04 -2.733000000000000186e-03 1.110000000000000011e-04 -1.018000000000000025e-03 2.602000000000000146e-03 3.220000000000000206e-04 8.299999999999999815e-05 2.526000000000000034e-03 2.310000000000000042e-04 -1.299999999999999886e-04 -2.317000000000000049e-03 4.319999999999999838e-04 6.530000000000000431e-04 -2.001999999999999873e-03 3.620000000000000171e-04 -9.269999999999999811e-04 2.527999999999999865e-03 -6.300000000000000261e-04 -2.489999999999999809e-04 2.758000000000000035e-03 1.620000000000000075e-04 -8.019999999999999785e-04 -1.936000000000000004e-03 2.640000000000000202e-04 -1.579999999999999916e-04 -2.456999999999999983e-03 2.439999999999999949e-04 -4.100000000000000047e-05 2.625999999999999862e-03 7.999999999999999638e-06 -6.099999999999999872e-05 2.056999999999999801e-03 -1.999999999999999909e-06 -4.420000000000000101e-04 -1.469999999999999953e-03 1.100000000000000039e-04 1.630000000000000047e-04 -2.396999999999999825e-03 -6.130000000000000466e-04 -4.180000000000000230e-04 2.873000000000000120e-03 2.919999999999999961e-04 -1.090000000000000067e-04 2.739999999999999814e-03 2.380000000000000117e-04 -3.899999999999999929e-04 -1.498999999999999898e-03 2.069999999999999900e-04 -1.190000000000000058e-04 -2.446999999999999956e-03 1.116000000000000021e-03 -3.530000000000000152e-04 2.792000000000000211e-03 5.190000000000000386e-04 -2.400000000000000061e-05 2.041999999999999978e-03 1.779999999999999898e-04 -1.930000000000000021e-04 -2.978000000000000178e-03 2.539999999999999940e-04 -2.469999999999999865e-04 -1.482000000000000027e-03 2.860000000000000129e-04 -3.399999999999999973e-05 2.673000000000000029e-03 3.510000000000000208e-04 -7.240000000000000342e-04 2.652999999999999976e-03 4.249999999999999763e-04 5.209999999999999788e-04 -2.288000000000000103e-03 2.010000000000000068e-04 -7.020000000000000415e-04 -1.881000000000000076e-03 4.330000000000000081e-04 -1.800000000000000046e-05 2.027999999999999855e-03 2.369999999999999874e-04 -7.290000000000000473e-04 2.743999999999999911e-03 -1.160000000000000007e-04 5.860000000000000408e-04 -2.213999999999999822e-03 3.899999999999999929e-05 -3.350000000000000113e-04 -1.376999999999999969e-03 4.100000000000000047e-05 1.599999999999999928e-05 2.043000000000000111e-03 1.230000000000000082e-04 -8.800000000000000313e-04 2.737999999999999982e-03 9.500000000000000523e-05 1.389999999999999905e-04 -2.363000000000000083e-03 -9.000000000000000567e-05 5.779999999999999548e-04 -2.177999999999999815e-03 2.410000000000000033e-04 -8.459999999999999638e-04 2.641999999999999817e-03 1.028000000000000051e-03 -3.009999999999999980e-04 2.786999999999999981e-03 1.540000000000000028e-04 -1.219999999999999974e-04 -2.360999999999999818e-03 2.220000000000000022e-04 -1.759999999999999954e-04 -2.909999999999999826e-03 5.700000000000000314e-05 -9.859999999999998974e-04 2.664999999999999834e-03 3.310000000000000225e-04 5.000000000000000409e-06 2.650000000000000012e-03 2.439999999999999949e-04 -1.550000000000000000e-04 -2.439999999999999895e-03 4.490000000000000176e-04 5.580000000000000107e-04 -2.272999999999999847e-03 3.559999999999999797e-04 -8.649999999999999920e-04 2.618000000000000101e-03 -5.550000000000000462e-04 -3.680000000000000003e-04 2.759000000000000168e-03 -2.669999999999999847e-04 1.550000000000000000e-04 -2.124000000000000020e-03 3.300000000000000253e-05 -1.447200000000000049e-02 -2.772999999999999857e-03 4.470000000000000232e-04 1.339100000000000013e-02 -1.599999999999999928e-05 7.499999999999999343e-05 1.357700000000000053e-02 2.990000000000000036e-04 -2.599999999999999840e-05 3.499999999999999693e-05 -1.618000000000000081e-03 4.899999999999999842e-05 -1.439000000000000001e-02 -2.069000000000000093e-03 -6.160000000000000111e-04 -4.800000000000000122e-05 -1.776000000000000018e-03 -2.100000000000000087e-04 -1.360699999999999930e-02 -2.115999999999999825e-03 -6.299999999999999990e-05 1.348000000000000066e-02 -1.039999999999999936e-04 -2.970000000000000092e-04 1.322800000000000017e-02 1.759999999999999954e-04 -3.559999999999999797e-04 1.230000000000000082e-04 -1.435999999999999993e-03 -2.180000000000000134e-04 -1.471199999999999938e-02 -2.154999999999999798e-03 -3.999999999999999819e-06 -7.100000000000000462e-05 -1.757000000000000098e-03 -1.840000000000000001e-04 -1.364100000000000035e-02 -2.148000000000000170e-03 -4.659999999999999971e-04 1.346699999999999980e-02 1.900000000000000105e-05 6.899999999999999667e-05 1.323200000000000071e-02 2.869999999999999830e-04 -3.660000000000000059e-04 1.090000000000000067e-04 -1.641000000000000097e-03 -7.200000000000000182e-05 -1.431699999999999987e-02 -2.194999999999999903e-03 -1.269999999999999970e-04 2.959999999999999849e-04 -1.495999999999999934e-03 -3.699999999999999811e-05 -1.384200000000000014e-02 -1.280000000000000105e-03 4.910000000000000085e-04 1.438799999999999975e-02 5.119999999999999768e-04 1.000000000000000082e-05 1.429500000000000041e-02 5.389999999999999826e-04 2.339999999999999958e-04 4.339999999999999782e-04 -4.879999999999999898e-04 1.769999999999999926e-04 -1.375099999999999933e-02 -1.417999999999999990e-03 -4.569999999999999952e-04 -1.050000000000000044e-04 -8.080000000000000160e-04 -5.199999999999999680e-05 -1.345999999999999974e-02 -1.028000000000000051e-03 -1.050000000000000044e-04 1.398100000000000037e-02 4.490000000000000176e-04 -2.750000000000000166e-04 1.422700000000000006e-02 4.889999999999999599e-04 -2.970000000000000092e-04 6.199999999999999999e-04 -9.169999999999999549e-04 -2.910000000000000260e-04 -1.339100000000000013e-02 -1.567999999999999949e-03 -2.680000000000000090e-04 -7.899999999999999579e-05 -9.470000000000000336e-04 -2.790000000000000054e-04 -1.349099999999999952e-02 -1.041999999999999958e-03 -4.730000000000000046e-04 1.439700000000000008e-02 5.360000000000000181e-04 2.339999999999999958e-04 1.429799999999999995e-02 6.539999999999999590e-04 -6.160000000000000111e-04 4.850000000000000253e-04 -5.389999999999999826e-04 -2.689999999999999791e-04 -1.378099999999999985e-02 -1.502999999999999996e-03 -2.030000000000000012e-04 5.270000000000000162e-04 -8.450000000000000479e-04 -2.099999999999999884e-05 -1.394699999999999933e-02 -1.600000000000000077e-03 3.449999999999999833e-04 1.434400000000000085e-02 7.759999999999999971e-04 2.300000000000000002e-05 1.424899999999999951e-02 2.359999999999999902e-04 3.199999999999999855e-05 -1.140000000000000063e-04 -1.291000000000000047e-03 4.800000000000000122e-05 -1.324499999999999983e-02 -9.479999999999999495e-04 -2.930000000000000204e-04 5.230000000000000274e-04 -1.072000000000000036e-03 -2.310000000000000042e-04 -1.425399999999999931e-02 -1.407000000000000048e-03 -1.379999999999999933e-04 1.461900000000000005e-02 6.830000000000000134e-04 -3.110000000000000243e-04 1.459000000000000054e-02 2.100000000000000087e-04 -3.130000000000000187e-04 3.020000000000000223e-04 -1.755000000000000050e-03 -1.169999999999999979e-04 -1.401099999999999915e-02 -1.585000000000000037e-03 -2.880000000000000073e-04 4.240000000000000062e-04 -1.105000000000000079e-03 -1.430000000000000064e-04 -1.422600000000000080e-02 -1.391000000000000092e-03 -3.680000000000000003e-04 1.426200000000000037e-02 8.170000000000000179e-04 8.799999999999999771e-05 1.459000000000000054e-02 2.910000000000000260e-04 -5.000000000000000104e-04 -8.200000000000000095e-05 -1.265999999999999981e-03 -2.439999999999999949e-04 -1.322199999999999938e-02 -1.108000000000000044e-03 -2.700000000000000035e-04 4.220000000000000118e-04 -1.580999999999999940e-03 -3.300000000000000253e-05 -1.388499999999999977e-02 -7.460000000000000268e-04 5.289999999999999564e-04 1.398899999999999970e-02 1.621000000000000045e-03 1.430000000000000064e-04 1.468700000000000040e-02 2.174000000000000151e-03 -1.169999999999999979e-04 5.779999999999999548e-04 -1.309999999999999967e-03 8.500000000000000611e-05 -1.342800000000000070e-02 -3.499999999999999964e-04 -5.339999999999999695e-04 1.550000000000000000e-04 -1.216999999999999983e-03 -1.569999999999999944e-04 -1.316200000000000009e-02 3.199999999999999855e-05 -2.310000000000000042e-04 1.407800000000000024e-02 1.549999999999999946e-03 -3.339999999999999870e-04 1.428199999999999956e-02 2.193000000000000071e-03 -3.089999999999999756e-04 6.409999999999999682e-04 -1.080000000000000014e-03 -2.310000000000000042e-04 -1.366200000000000053e-02 -4.360000000000000269e-04 -3.600000000000000091e-05 2.110000000000000059e-04 -1.237000000000000035e-03 -1.200000000000000030e-04 -1.320400000000000046e-02 -3.300000000000000253e-05 -3.890000000000000228e-04 1.402499999999999927e-02 1.744000000000000107e-03 2.900000000000000017e-05 1.430500000000000001e-02 2.230999999999999910e-03 -3.640000000000000115e-04 5.839999999999999922e-04 -1.224999999999999960e-03 -1.289999999999999914e-04 -1.349099999999999952e-02 -3.899999999999999929e-04 -2.010000000000000068e-04 3.649999999999999816e-04 -1.953000000000000092e-03 -4.300000000000000165e-05 -1.431499999999999960e-02 -8.819999999999999715e-04 4.949999999999999973e-04 1.452699999999999998e-02 1.704999999999999918e-03 -5.899999999999999754e-05 1.394899999999999959e-02 8.099999999999999561e-04 2.799999999999999755e-04 9.299999999999999727e-05 -1.471000000000000085e-03 1.469999999999999953e-04 -1.403300000000000033e-02 -4.229999999999999819e-04 -4.339999999999999782e-04 2.599999999999999840e-05 -1.382999999999999898e-03 8.299999999999999815e-05 -1.392200000000000035e-02 -5.580000000000000107e-04 -1.069999999999999988e-04 1.408200000000000077e-02 1.570999999999999914e-03 -3.570000000000000040e-04 1.387399999999999918e-02 8.999999999999999754e-04 -3.840000000000000097e-04 3.350000000000000113e-04 -1.786999999999999960e-03 -1.840000000000000001e-04 -1.370599999999999943e-02 -5.360000000000000181e-04 -1.569999999999999944e-04 1.000000000000000082e-05 -1.312000000000000015e-03 -2.999999999999999737e-04 -1.395300000000000012e-02 -6.880000000000000265e-04 -4.279999999999999950e-04 1.456900000000000035e-02 1.858000000000000059e-03 1.859999999999999945e-04 1.390899999999999949e-02 8.360000000000000460e-04 -7.050000000000000060e-04 1.119999999999999983e-04 -1.464000000000000024e-03 -3.719999999999999891e-04 -1.401499999999999968e-02 -4.760000000000000234e-04 -2.460000000000000164e-04 2.610000000000000015e-04 -1.536999999999999955e-03 5.500000000000000196e-05 -1.371999999999999956e-02 -7.690000000000000438e-04 2.840000000000000185e-04 1.373800000000000021e-02 9.719999999999999907e-04 6.000000000000000152e-05 1.365300000000000021e-02 8.739999999999999939e-04 1.569999999999999944e-04 -3.930000000000000117e-04 -1.229000000000000058e-03 2.770000000000000110e-04 -1.383999999999999987e-02 -5.760000000000000146e-04 -2.249999999999999938e-04 2.280000000000000126e-04 -1.647000000000000026e-03 -2.310000000000000042e-04 -1.386800000000000012e-02 -3.989999999999999949e-04 -9.699999999999999963e-05 1.405400000000000052e-02 8.829999999999999958e-04 -3.579999999999999741e-04 1.404500000000000019e-02 8.840000000000000201e-04 -3.770000000000000022e-04 -4.000000000000000327e-05 -1.735999999999999913e-03 -2.200000000000000078e-04 -1.467399999999999954e-02 -1.121999999999999950e-03 -4.200000000000000174e-04 1.990000000000000124e-04 -1.737999999999999962e-03 -3.040000000000000167e-04 -1.397100000000000078e-02 -5.860000000000000408e-04 -3.319999999999999926e-04 1.364800000000000041e-02 8.390000000000000105e-04 1.090000000000000067e-04 1.410100000000000069e-02 9.200000000000000278e-04 -5.710000000000000015e-04 -3.980000000000000248e-04 -1.250999999999999942e-03 -3.409999999999999945e-04 -1.394699999999999933e-02 -5.829999999999999679e-04 -1.959999999999999937e-04 3.809999999999999910e-04 -2.390000000000000089e-04 -1.069999999999999988e-04 -1.475699999999999928e-02 -6.059999999999999849e-04 5.590000000000000351e-04 1.388999999999999957e-02 5.360000000000000181e-04 5.000000000000000409e-06 1.431900000000000013e-02 7.169999999999999724e-04 -2.199999999999999943e-05 9.200000000000000007e-05 2.300000000000000002e-05 4.399999999999999886e-05 -1.359999999999999924e-02 1.090000000000000067e-04 -6.430000000000000169e-04 3.359999999999999814e-04 7.799999999999999859e-05 -1.550000000000000000e-04 -1.396599999999999925e-02 -4.000000000000000327e-05 -1.279999999999999942e-04 1.394300000000000053e-02 3.319999999999999926e-04 -2.480000000000000108e-04 1.397699999999999984e-02 6.220000000000000485e-04 -3.200000000000000262e-04 2.130000000000000003e-04 2.790000000000000054e-04 -1.310000000000000129e-04 -1.386399999999999959e-02 -4.800000000000000122e-05 3.699999999999999811e-05 2.599999999999999772e-04 1.600000000000000131e-04 -1.299999999999999886e-04 -1.394899999999999959e-02 -2.000000000000000164e-05 -4.110000000000000155e-04 1.397699999999999984e-02 6.400000000000000524e-04 9.500000000000000523e-05 1.399899999999999929e-02 6.599999999999999964e-04 -3.770000000000000022e-04 1.029999999999999964e-04 1.169999999999999979e-04 -1.010000000000000020e-04 -1.363699999999999982e-02 -7.499999999999999343e-05 -1.620000000000000075e-04 7.600000000000000418e-05 -6.030000000000000204e-04 -1.299999999999999920e-05 -1.416800000000000004e-02 -7.519999999999999558e-04 5.209999999999999788e-04 1.426000000000000011e-02 6.729999999999999871e-04 5.199999999999999680e-05 1.383500000000000008e-02 5.069999999999999637e-04 3.390000000000000001e-04 -6.499999999999999431e-05 1.999999999999999909e-06 1.219999999999999974e-04 -1.437399999999999962e-02 -3.110000000000000243e-04 -4.169999999999999987e-04 -3.299999999999999982e-04 -6.899999999999999667e-05 1.099999999999999971e-05 -1.381499999999999916e-02 -6.040000000000000447e-04 -1.010000000000000020e-04 1.378599999999999964e-02 4.209999999999999875e-04 -2.840000000000000185e-04 1.370099999999999964e-02 3.510000000000000208e-04 -4.029999999999999837e-04 1.320000000000000101e-04 -3.440000000000000132e-04 -1.679999999999999907e-04 -1.412599999999999967e-02 -6.350000000000000392e-04 -2.400000000000000061e-04 -2.939999999999999905e-04 -1.469999999999999953e-04 -4.040000000000000080e-04 -1.381600000000000016e-02 -5.299999999999999807e-04 -5.119999999999999768e-04 1.426200000000000037e-02 7.079999999999999705e-04 2.000000000000000164e-05 1.377500000000000079e-02 4.939999999999999730e-04 -7.770000000000000214e-04 -4.399999999999999886e-05 3.899999999999999929e-05 -3.449999999999999833e-04 -1.441100000000000020e-02 -6.449999999999999570e-04 -1.769999999999999926e-04 5.479999999999999845e-04 1.999999999999999909e-06 -5.599999999999999916e-05 -1.328999999999999973e-02 -4.020000000000000136e-04 4.569999999999999952e-04 1.411399999999999981e-02 1.157000000000000042e-03 9.699999999999999963e-05 1.417700000000000037e-02 1.100000000000000066e-03 5.700000000000000314e-05 2.779999999999999811e-04 -4.399999999999999886e-05 2.020000000000000040e-04 -1.352399999999999956e-02 -3.510000000000000208e-04 -2.290000000000000098e-04 4.850000000000000253e-04 -2.180000000000000134e-04 -3.299999999999999982e-04 -1.358999999999999965e-02 4.199999999999999768e-05 -8.899999999999999491e-05 1.432399999999999993e-02 1.044999999999999922e-03 -3.730000000000000134e-04 1.451500000000000012e-02 8.739999999999999939e-04 -3.579999999999999741e-04 6.290000000000000018e-04 -4.910000000000000085e-04 -1.230000000000000082e-04 -1.416599999999999977e-02 -9.319999999999999942e-04 -4.530000000000000064e-04 4.409999999999999858e-04 -2.759999999999999867e-04 -7.899999999999999579e-05 -1.367299999999999939e-02 -1.900000000000000105e-05 -4.580000000000000195e-04 1.411500000000000081e-02 1.337999999999999997e-03 1.820000000000000057e-04 1.450199999999999927e-02 9.359999999999999831e-04 -4.769999999999999934e-04 2.059999999999999928e-04 -8.299999999999999815e-05 -3.640000000000000115e-04 -1.353000000000000036e-02 -4.180000000000000230e-04