6.959616324816784072e+01 -2.002235918951998477e-03 -8.696580254033931673e-03 -2.002235918951998477e-03 -1.780241348498060461e+02 -2.643420623858250806e+01 -8.696580254033931673e-03 -2.643420623858250806e+01 9.566800523463051320e+01
6.943185855518231619e+01 -9.277026424477592681e-02 1.814147090201962201e-02 -9.277026424477592681e-02 -1.782223764303875271e+02 -2.654115395110188658e+01 1.814147090201962201e-02 -2.654115395110188658e+01 9.559111128550065928e+01
6.899765650524311411e+01 -1.802619065214056682e-01 5.294801652339728437e-02 -1.802619065214056682e-01 -1.786599559894021354e+02 -2.662170855378052536e+01 5.294801652339728437e-02 -2.662170855378052536e+01 9.525113567138366477e+01
6.944579330819401264e+01 -2.781489958923922812e-01 6.486030901089959166e-02 -2.781489958923922812e-01 -1.782466055074673648e+02 -2.669852160448941447e+01 6.486030901089959166e-02 -2.669852160448941447e+01 9.585587159272289171e+01
7.003072934100138980e+01 -3.741349723706365316e-01 7.092769058348138977e-02 -3.741349723706365316e-01 -1.776484628074370278e+02 -2.674269214233780900e+01 7.092769058348138977e-02 -2.674269214233780900e+01 9.650176458572946103e+01
