2.451150000000000162e+00 2.821979999999999933e+00 5.092810000000000059e+00 6.720199999999999507e-01 3.513380000000000170e+00 2.417460000000000164e+00 1.890190000000000037e+00 9.825500000000000345e-01 2.417489999999999917e+00 3.557949999999999946e+00 3.513389999999999791e+00 2.417460000000000164e+00 2.900729999999999809e+00 7.883659999999999890e+00 5.092810000000000059e+00 2.339789999999999814e+00 6.044240000000000279e+00 2.417499999999999982e+00 4.118909999999999627e+00 5.352829999999999977e+00 5.092830000000000190e+00 5.337080000000000268e+00 2.821979999999999933e+00 5.092810000000000059e+00 5.786679999999999602e+00 7.883659999999999890e+00 5.092819999999999681e+00 1.831979999999999942e+00 3.945230000000000015e+00 9.957330000000000680e+00 3.050180000000000113e+00 1.414390000000000036e+00 9.957380000000000564e+00 4.717929999999999957e+00 3.945219999999999949e+00 9.957319999999999283e+00 3.499769999999999825e+00 6.476090000000000124e+00 9.957359999999999545e+00 3.611130000000000173e+00 3.253829999999999778e+00 1.263268000000000058e+01 4.060719999999999885e+00 8.315509999999999735e+00 1.263269000000000020e+01 5.278900000000000148e+00 5.784679999999999822e+00 1.263269000000000020e+01 6.497060000000000279e+00 3.253820000000000157e+00 1.263269000000000020e+01 6.946649999999999991e+00 8.315509999999999735e+00 1.263269999999999982e+01 4.771110000000000184e+00 3.685649999999999871e+00 2.017257000000000033e+01 2.991979999999999862e+00 4.377069999999999794e+00 1.749719999999999942e+01 4.210169999999999746e+00 1.846240000000000103e+00 1.749724000000000146e+01 5.877909999999999968e+00 4.377069999999999794e+00 1.749718999999999980e+01 5.220710000000000406e+00 8.747339999999999449e+00 2.017257000000000033e+01 4.659760000000000346e+00 6.907930000000000348e+00 1.749725000000000108e+01 6.438869999999999649e+00 6.216520000000000046e+00 2.017257000000000033e+01 7.657029999999999781e+00 3.685649999999999871e+00 2.017257000000000033e+01 8.106640000000000512e+00 8.747350000000000847e+00 2.017256000000000071e+01 5.018089999999999939e+00 1.547619000000000078e+01 5.092810000000000059e+00 1.121599999999999930e+00 8.575079999999999814e+00 2.417450000000000099e+00 4.007530000000000037e+00 8.575079999999999814e+00 2.417440000000000033e+00 3.350330000000000030e+00 1.294534999999999947e+01 5.092819999999999681e+00 1.571209999999999996e+00 1.363676000000000066e+01 2.417440000000000033e+00 2.789390000000000036e+00 1.110594000000000037e+01 2.417499999999999982e+00 4.568500000000000227e+00 1.041450999999999993e+01 5.092819999999999681e+00 4.457139999999999880e+00 1.363677000000000028e+01 2.417440000000000033e+00 6.236270000000000202e+00 1.294534999999999947e+01 5.092810000000000059e+00 2.281590000000000007e+00 9.006919999999999149e+00 9.957330000000000680e+00 5.167519999999999669e+00 9.006909999999999528e+00 9.957330000000000680e+00 2.731180000000000163e+00 1.406859999999999999e+01 9.957330000000000680e+00 3.949380000000000113e+00 1.153777000000000008e+01 9.957380000000000564e+00 5.617119999999999891e+00 1.406859000000000037e+01 9.957330000000000680e+00 6.178069999999999951e+00 1.590804999999999936e+01 1.263269000000000020e+01 4.510299999999999976e+00 1.337720000000000020e+01 1.263268000000000058e+01 5.728480000000000238e+00 1.084636000000000067e+01 1.263269000000000020e+01 7.396250000000000213e+00 1.337719000000000058e+01 1.263269000000000020e+01 7.338070000000000093e+00 1.633988000000000085e+01 2.017257000000000033e+01 3.441570000000000018e+00 9.438760000000000261e+00 1.749719999999999942e+01 6.327499999999999680e+00 9.438750000000000639e+00 1.749719999999999942e+01 5.670289999999999608e+00 1.380903999999999954e+01 2.017257000000000033e+01 3.891160000000000174e+00 1.450045000000000073e+01 1.749719999999999942e+01 5.109350000000000058e+00 1.196960999999999942e+01 1.749724000000000146e+01 6.888460000000000250e+00 1.127820000000000000e+01 2.017257000000000033e+01 6.777099999999999902e+00 1.450043999999999933e+01 1.749719999999999942e+01 8.556229999999999336e+00 1.380903999999999954e+01 2.017257000000000033e+01 9.890769999999999840e+00 5.352829999999999977e+00 5.092810000000000059e+00 4.776130000000000209e+00 9.825599999999999890e-01 2.417489999999999917e+00 8.223019999999999996e+00 2.821979999999999933e+00 5.092810000000000059e+00 6.443889999999999674e+00 3.513380000000000170e+00 2.417450000000000099e+00 7.662069999999999936e+00 9.825599999999999890e-01 2.417499999999999982e+00 5.225719999999999921e+00 6.044240000000000279e+00 2.417499999999999982e+00 7.004850000000000243e+00 5.352829999999999977e+00 5.092819999999999681e+00 8.672610000000000596e+00 7.883659999999999890e+00 5.092819999999999681e+00 8.111670000000000158e+00 6.044240000000000279e+00 2.417499999999999982e+00 5.936119999999999841e+00 1.414390000000000036e+00 9.957369999999999166e+00 7.603869999999999685e+00 3.945230000000000015e+00 9.957319999999999283e+00 8.822050000000000836e+00 1.414400000000000102e+00 9.957369999999999166e+00 6.385710000000000441e+00 6.476079999999999615e+00 9.957359999999999545e+00 9.271639999999999660e+00 6.476079999999999615e+00 9.957359999999999545e+00 1.105075000000000074e+01 5.784659999999999691e+00 1.263269000000000020e+01 9.382989999999999498e+00 3.253810000000000091e+00 1.263268000000000058e+01 8.164830000000000254e+00 5.784670000000000201e+00 1.263269999999999982e+01 9.832580000000000098e+00 8.315500000000000114e+00 1.263269999999999982e+01 7.096090000000000231e+00 1.846230000000000038e+00 1.749725000000000108e+01 1.054298000000000002e+01 3.685659999999999936e+00 2.017257000000000033e+01 8.763849999999999696e+00 4.377069999999999794e+00 1.749718999999999980e+01 9.982039999999999580e+00 1.846240000000000103e+00 1.749725000000000108e+01 7.545689999999999564e+00 6.907930000000000348e+00 1.749724000000000146e+01 9.324799999999999756e+00 6.216510000000000424e+00 2.017256000000000071e+01 1.099258000000000024e+01 8.747339999999999449e+00 2.017257000000000033e+01 1.043163000000000018e+01 6.907930000000000348e+00 1.749724000000000146e+01 1.221075000000000088e+01 6.216520000000000046e+00 2.017257999999999996e+01 7.904029999999999667e+00 1.547620000000000040e+01 5.092810000000000059e+00 6.893489999999999895e+00 8.575070000000000192e+00 2.417440000000000033e+00 5.675320000000000142e+00 1.110591999999999935e+01 2.417489999999999917e+00 7.454439999999999955e+00 1.041450999999999993e+01 5.092810000000000059e+00 9.122210000000000818e+00 1.294534999999999947e+01 5.092810000000000059e+00 7.343069999999999986e+00 1.363674999999999926e+01 2.417450000000000099e+00 8.561249999999999361e+00 1.110591999999999935e+01 2.417499999999999982e+00 1.078997000000000028e+01 1.547620000000000040e+01 5.092830000000000190e+00 1.034037999999999968e+01 1.041451999999999956e+01 5.092810000000000059e+00 8.053449999999999775e+00 9.006899999999999906e+00 9.957319999999999283e+00 6.835309999999999775e+00 1.153777000000000008e+01 9.957380000000000564e+00 8.503049999999999997e+00 1.406859999999999999e+01 9.957319999999999283e+00 9.721239999999999881e+00 1.153777000000000008e+01 9.957369999999999166e+00 9.064019999999999300e+00 1.590804999999999936e+01 1.263269000000000020e+01 8.614430000000000476e+00 1.084636000000000067e+01 1.263269000000000020e+01 1.028218999999999994e+01 1.337717999999999918e+01 1.263269999999999982e+01 1.194996000000000080e+01 1.590803000000000011e+01 1.263269999999999982e+01 1.150034999999999918e+01 1.084637000000000029e+01 1.263269000000000020e+01 1.022400000000000020e+01 1.633989000000000047e+01 2.017256000000000071e+01 9.213449999999999918e+00 9.438750000000000639e+00 1.749719999999999942e+01 7.995289999999999786e+00 1.196960999999999942e+01 1.749724000000000146e+01 9.774399999999999977e+00 1.127820999999999962e+01 2.017257999999999996e+01 1.144217000000000084e+01 1.380902999999999992e+01 2.017256000000000071e+01 9.663040000000000518e+00 1.450042999999999971e+01 1.749720999999999904e+01 1.088120999999999938e+01 1.196960999999999942e+01 1.749724000000000146e+01 1.310992000000000068e+01 1.633988000000000085e+01 2.017257999999999996e+01 1.266033000000000008e+01 1.127820000000000000e+01 2.017256000000000071e+01 4.756730000000000125e+00 2.606739999999999835e+00 1.319700000000000095e+00 7.276599999999999735e-01 1.902269999999999905e+00 3.755119999999999791e+00 1.870800000000000018e+00 2.606739999999999835e+00 1.319700000000000095e+00 3.538590000000000124e+00 5.137550000000000061e+00 1.319700000000000095e+00 2.395439999999999792e+00 4.433110000000000106e+00 3.755220000000000002e+00 3.613599999999999923e+00 1.902269999999999905e+00 3.755119999999999791e+00 3.088989999999999903e+00 7.585999999999999688e-02 1.319690000000000030e+00 1.177240000000000064e+00 6.963960000000000150e+00 3.755119999999999791e+00 4.063189999999999635e+00 6.963969999999999771e+00 3.755119999999999791e+00 6.526499999999999524e-01 5.137540000000000440e+00 1.319690000000000030e+00 1.252389999999999892e+00 3.728619999999999823e+00 6.190760000000000041e+00 2.470579999999999998e+00 1.197799999999999976e+00 6.190830000000000055e+00 4.138320000000000221e+00 3.728619999999999823e+00 6.190750000000000419e+00 2.920170000000000154e+00 6.259490000000000443e+00 6.190820000000000434e+00 1.887629999999999919e+00 2.334109999999999907e+00 1.129500999999999955e+01 3.030780000000000030e+00 3.038580000000000059e+00 8.859569999999999723e+00 4.698550000000000004e+00 5.569379999999999775e+00 8.859569999999999723e+00 3.555429999999999868e+00 4.864959999999999951e+00 1.129509999999999970e+01 4.773570000000000313e+00 2.334119999999999973e+00 1.129499000000000031e+01 4.248960000000000292e+00 5.077000000000000401e-01 8.859550000000000480e+00 2.337229999999999919e+00 7.395789999999999864e+00 1.129499000000000031e+01 5.223169999999999646e+00 7.395800000000000374e+00 1.129499999999999993e+01 5.916719999999999757e+00 3.038580000000000059e+00 8.859579999999999345e+00 7.076690000000000147e+00 3.470429999999999904e+00 1.639945000000000164e+01 2.412360000000000060e+00 4.160459999999999603e+00 1.373062999999999967e+01 3.630549999999999944e+00 1.629639999999999977e+00 1.373070000000000057e+01 5.298300000000000232e+00 4.160459999999999603e+00 1.373062999999999967e+01 4.080149999999999721e+00 6.691320000000000157e+00 1.373071000000000019e+01 4.190760000000000041e+00 3.470419999999999838e+00 1.639946000000000126e+01 5.858539999999999637e+00 6.001219999999999999e+00 1.639943999999999846e+01 5.408949999999999925e+00 9.395400000000000418e-01 1.639943999999999846e+01 2.972609999999999975e+00 6.001240000000000130e+00 1.639942999999999884e+01 6.383140000000000036e+00 7.827650000000000219e+00 1.883487999999999829e+01 3.047620000000000218e+00 2.765960000000000196e+00 1.883485999999999905e+01 3.572350000000000136e+00 4.592299999999999827e+00 2.127049999999999841e+01 4.715410000000000323e+00 5.296809999999999796e+00 1.883494999999999919e+01 4.790540000000000020e+00 2.061479999999999979e+00 2.127057999999999893e+01 5.933550000000000324e+00 2.765960000000000196e+00 1.883486999999999867e+01 6.458280000000000243e+00 4.592310000000000336e+00 2.127049999999999841e+01 3.497219999999999995e+00 7.827639999999999709e+00 1.883487999999999829e+01 5.240129999999999733e+00 7.123160000000000380e+00 2.127056999999999931e+01 5.655920000000000059e+00 1.273010999999999981e+01 1.319690000000000030e+00 5.206339999999999968e+00 7.668429999999999858e+00 1.319700000000000095e+00 2.320399999999999796e+00 7.668429999999999858e+00 1.319700000000000095e+00 2.845050000000000079e+00 9.494809999999999306e+00 3.755199999999999871e+00 1.626840000000000064e+00 1.202565000000000062e+01 3.755119999999999791e+00 2.769989999999999952e+00 1.273011999999999944e+01 1.319700000000000095e+00 3.988179999999999836e+00 1.019923000000000002e+01 1.319690000000000030e+00 3.294630000000000170e+00 1.455649999999999977e+01 3.755199999999999871e+00 4.512789999999999857e+00 1.202563999999999922e+01 3.755119999999999791e+00 1.701989999999999892e+00 8.790300000000000225e+00 6.190750000000000419e+00 4.587920000000000442e+00 8.790300000000000225e+00 6.190760000000000041e+00 2.151590000000000114e+00 1.385197999999999929e+01 6.190760000000000041e+00 3.369759999999999867e+00 1.132117000000000040e+01 6.190830000000000055e+00 5.037530000000000285e+00 1.385200000000000031e+01 6.190769999999999662e+00 3.480370000000000186e+00 8.100270000000000081e+00 8.859579999999999345e+00 4.005029999999999646e+00 9.926650000000000418e+00 1.129509000000000007e+01 2.786830000000000140e+00 1.245748999999999995e+01 1.129500999999999955e+01 3.929980000000000029e+00 1.316196000000000055e+01 8.859579999999999345e+00 5.148150000000000226e+00 1.063108000000000075e+01 8.859560000000000102e+00 4.454609999999999737e+00 1.498832999999999949e+01 1.129508000000000045e+01 5.672760000000000247e+00 1.245748000000000033e+01 1.129499000000000031e+01 6.366310000000000358e+00 8.100270000000000081e+00 8.859569999999999723e+00 6.815900000000000070e+00 1.316194999999999915e+01 8.859579999999999345e+00 2.262220000000000120e+00 1.063108000000000075e+01 8.859550000000000480e+00 7.975880000000000081e+00 1.359379999999999988e+01 1.639945000000000164e+01 7.526299999999999990e+00 8.532109999999999417e+00 1.639946000000000126e+01 2.861959999999999837e+00 9.222139999999999560e+00 1.373063999999999929e+01 5.747910000000000075e+00 9.222149999999999181e+00 1.373063999999999929e+01 3.311560000000000059e+00 1.428383999999999965e+01 1.373062000000000005e+01 4.529749999999999943e+00 1.175300999999999974e+01 1.373070000000000057e+01 6.197499999999999787e+00 1.428383999999999965e+01 1.373062999999999967e+01 4.640349999999999753e+00 8.532109999999999417e+00 1.639946000000000126e+01 5.089949999999999974e+00 1.359379999999999988e+01 1.639943999999999846e+01 6.308139999999999858e+00 1.106292000000000009e+01 1.639943999999999846e+01 7.357479999999999798e+00 1.471568000000000076e+01 2.127051000000000158e+01 6.832740000000000258e+00 1.288932999999999929e+01 1.883487999999999829e+01 4.021959999999999980e+00 9.653990000000000293e+00 2.127049999999999841e+01 5.165009999999999657e+00 1.035848999999999975e+01 1.883496999999999844e+01 6.907879999999999576e+00 9.653999999999999915e+00 2.127049999999999841e+01 3.946810000000000151e+00 1.288932999999999929e+01 1.883486999999999867e+01 4.471540000000000070e+00 1.471569000000000038e+01 2.127051000000000158e+01 5.614600000000000257e+00 1.542017000000000060e+01 1.883495999999999881e+01 5.689729999999999954e+00 1.218486000000000047e+01 2.127056999999999931e+01 8.860849999999999227e+00 7.585999999999999688e-02 1.319690000000000030e+00 6.424509999999999721e+00 5.137550000000000061e+00 1.319690000000000030e+00 5.281369999999999898e+00 4.433119999999999727e+00 3.755220000000000002e+00 6.499530000000000030e+00 1.902260000000000062e+00 3.755119999999999791e+00 7.642680000000000362e+00 2.606749999999999901e+00 1.319700000000000095e+00 5.974920000000000009e+00 7.585999999999999688e-02 1.319690000000000030e+00 8.167320000000000135e+00 4.433130000000000237e+00 3.755209999999999937e+00 6.949130000000000251e+00 6.963960000000000150e+00 3.755129999999999857e+00 5.356499999999999595e+00 1.197799999999999976e+00 6.190820000000000434e+00 7.024259999999999948e+00 3.728619999999999823e+00 6.190760000000000041e+00 8.242440000000000211e+00 1.197810000000000041e+00 6.190830000000000055e+00 5.806099999999999817e+00 6.259479999999999933e+00 6.190830000000000055e+00 8.692050000000000054e+00 6.259479999999999933e+00 6.190830000000000055e+00 7.584500000000000242e+00 5.569379999999999775e+00 8.859550000000000480e+00 6.441370000000000040e+00 4.864969999999999573e+00 1.129509000000000007e+01 7.659510000000000041e+00 2.334119999999999973e+00 1.129499000000000031e+01 8.802659999999999485e+00 3.038580000000000059e+00 8.859569999999999723e+00 7.134890000000000398e+00 5.077000000000000401e-01 8.859560000000000102e+00 9.327299999999999258e+00 4.864969999999999573e+00 1.129509000000000007e+01 8.109099999999999753e+00 7.395809999999999995e+00 1.129499000000000031e+01 1.002083999999999975e+01 5.077000000000000401e-01 8.859550000000000480e+00 1.047043999999999997e+01 5.569399999999999906e+00 8.859560000000000102e+00 1.118082000000000065e+01 9.395499999999999963e-01 1.639943999999999846e+01 6.516499999999999737e+00 1.629650000000000043e+00 1.373070000000000057e+01 8.184240000000000848e+00 4.160459999999999603e+00 1.373062000000000005e+01 9.402419999999999334e+00 1.629629999999999912e+00 1.373071000000000019e+01 6.966099999999999959e+00 6.691329999999999778e+00 1.373070000000000057e+01 9.852019999999999555e+00 6.691329999999999778e+00 1.373070000000000057e+01 8.744479999999999364e+00 6.001240000000000130e+00 1.639942999999999884e+01 9.962630000000000763e+00 3.470429999999999904e+00 1.639946000000000126e+01 8.294879999999999143e+00 9.395499999999999963e-01 1.639943999999999846e+01 1.101199000000000083e+01 7.123160000000000380e+00 2.127057999999999893e+01 9.269080000000000652e+00 7.827639999999999709e+00 1.883486999999999867e+01 7.601350000000000051e+00 5.296809999999999796e+00 1.883496999999999844e+01 7.676479999999999748e+00 2.061479999999999979e+00 2.127056999999999931e+01 8.819490000000000052e+00 2.765950000000000131e+00 1.883486999999999867e+01 9.344219999999999970e+00 4.592310000000000336e+00 2.127049999999999841e+01 1.048728000000000016e+01 5.296800000000000175e+00 1.883496999999999844e+01 1.056240000000000023e+01 2.061490000000000045e+00 2.127056999999999931e+01 8.126060000000000727e+00 7.123170000000000002e+00 2.127056999999999931e+01 9.760040000000000049e+00 1.019923999999999964e+01 1.319690000000000030e+00 9.066509999999999181e+00 1.455649999999999977e+01 3.755199999999999871e+00 5.730979999999999741e+00 9.494809999999999306e+00 3.755209999999999937e+00 8.092269999999999186e+00 7.668429999999999858e+00 1.319709999999999939e+00 8.616920000000000357e+00 9.494809999999999306e+00 3.755220000000000002e+00 6.874100000000000321e+00 1.019923000000000002e+01 1.319679999999999964e+00 6.180579999999999963e+00 1.455648000000000053e+01 3.755199999999999871e+00 7.398729999999999585e+00 1.202565000000000062e+01 3.755129999999999857e+00 8.541859999999999786e+00 1.273010999999999981e+01 1.319700000000000095e+00 7.473849999999999660e+00 8.790309999999999846e+00 6.190760000000000041e+00 6.255690000000000417e+00 1.132117000000000040e+01 6.190830000000000055e+00 7.923449999999999882e+00 1.385199000000000069e+01 6.190750000000000419e+00 9.141629999999999256e+00 1.132116000000000078e+01 6.190809999999999924e+00 1.022649000000000008e+01 1.498834000000000088e+01 1.129508000000000045e+01 6.890970000000000262e+00 9.926640000000000796e+00 1.129509999999999970e+01 9.252240000000000464e+00 8.100270000000000081e+00 8.859569999999999723e+00 9.776899999999999480e+00 9.926640000000000796e+00 1.129509000000000007e+01 8.034090000000000842e+00 1.063108000000000075e+01 8.859560000000000102e+00 7.340550000000000352e+00 1.498834000000000088e+01 1.129509000000000007e+01 8.558690000000000353e+00 1.245748000000000033e+01 1.129499999999999993e+01 9.701840000000000686e+00 1.316194999999999915e+01 8.859579999999999345e+00 1.208000000000000007e+01 1.106292000000000009e+01 1.639943999999999846e+01 8.633839999999999293e+00 9.222160000000000579e+00 1.373063999999999929e+01 7.415680000000000049e+00 1.175300999999999974e+01 1.373068999999999917e+01 9.083429999999999893e+00 1.428383999999999965e+01 1.373062999999999967e+01 1.030161000000000016e+01 1.175300999999999974e+01 1.373070000000000057e+01 9.194069999999999965e+00 1.106292999999999971e+01 1.639942999999999884e+01 1.041224000000000061e+01 8.532099999999999795e+00 1.639943999999999846e+01 1.086181999999999981e+01 1.359380999999999950e+01 1.639943999999999846e+01 1.146161000000000030e+01 1.218486000000000047e+01 2.127056999999999931e+01 8.050950000000000273e+00 1.035849999999999937e+01 1.883495999999999881e+01 9.793820000000000192e+00 9.653999999999999915e+00 2.127049999999999841e+01 1.093688000000000038e+01 1.035848999999999975e+01 1.883496999999999844e+01 8.500540000000000873e+00 1.542017000000000060e+01 1.883496999999999844e+01 8.575659999999999172e+00 1.218485000000000085e+01 2.127057999999999893e+01 9.718690000000000495e+00 1.288932999999999929e+01 1.883485999999999905e+01 1.024341000000000079e+01 1.471566999999999936e+01 2.127049999999999841e+01 1.138648000000000060e+01 1.542018000000000022e+01 1.883496999999999844e+01