-2.726466878820000147e+03
-2.726390310679999857e+03
-2.726261079899999913e+03
-2.726081557450000219e+03
-2.725854946660000223e+03
-2.725585132319999957e+03
-2.725276558540000224e+03
-2.724934220199999800e+03
-2.724563437589999921e+03
-2.724169959180000205e+03
