5.684510000000000396e-01 -7.558499999999999941e-02 -8.597749999999999559e-01 -5.708710000000000173e-01 7.502399999999999347e-02 8.629299999999999748e-01 -5.697130000000000249e-01 7.437399999999999567e-02 8.608649999999999913e-01 -5.705660000000000176e-01 7.465199999999999614e-02 8.626770000000000271e-01 5.691040000000000543e-01 -7.570000000000000340e-02 -8.598069999999999879e-01 -5.693240000000000522e-01 7.512900000000000134e-02 8.612630000000000008e-01 5.684620000000000228e-01 -7.472399999999999876e-02 -8.590499999999999803e-01 5.686409999999999521e-01 -7.557800000000000629e-02 -8.600700000000000012e-01 5.689480000000000093e-01 -7.572299999999999864e-02 -8.598080000000000167e-01 -5.703580000000000316e-01 7.459100000000000452e-02 8.619210000000000482e-01 -5.697189999999999754e-01 7.467400000000000426e-02 8.599620000000000042e-01 -5.707550000000000123e-01 7.487900000000000111e-02 8.622480000000000144e-01 -5.692160000000000553e-01 7.477100000000000413e-02 8.612189999999999568e-01 5.685390000000000166e-01 -7.547800000000000342e-02 -8.596460000000000212e-01 5.688940000000000108e-01 -7.579299999999999926e-02 -8.592070000000000540e-01 5.682359999999999634e-01 -7.447299999999999753e-02 -8.583220000000000294e-01 5.685130000000000461e-01 -7.531699999999999506e-02 -8.598190000000000000e-01 5.691310000000000535e-01 -7.568800000000000527e-02 -8.596110000000000140e-01 5.684590000000000476e-01 -7.517600000000000671e-02 -8.605920000000000236e-01 -5.707830000000000403e-01 7.505499999999999672e-02 8.623450000000000282e-01 -5.697870000000000434e-01 7.446600000000000441e-02 8.605800000000000116e-01 -5.707020000000000426e-01 7.493800000000000461e-02 8.625000000000000444e-01 5.690720000000000223e-01 -7.542799999999999505e-02 -8.603530000000000344e-01 -5.693829999999999725e-01 7.525099999999999845e-02 8.609400000000000386e-01 5.687940000000000218e-01 -7.461299999999999877e-02 -8.596599999999999797e-01 5.689450000000000340e-01 -7.533600000000000019e-02 -8.607770000000000143e-01 5.691049999999999720e-01 -7.563200000000000478e-02 -8.602809999999999624e-01 5.686579999999999968e-01 -7.491299999999999348e-02 -8.595589999999999620e-01 -5.704669999999999463e-01 7.485300000000000287e-02 8.616139999999999910e-01 -5.704299999999999926e-01 7.464700000000000502e-02 8.617970000000000352e-01 5.692770000000000330e-01 -7.481100000000000250e-02 -8.595960000000000267e-01 -5.705580000000000096e-01 7.598000000000000587e-02 8.629059999999999508e-01 -5.697269999999999834e-01 7.410400000000000320e-02 8.610679999999999445e-01 5.681310000000000526e-01 -7.488200000000000411e-02 -8.598440000000000527e-01 -5.703059999999999796e-01 7.569900000000000240e-02 8.629050000000000331e-01 5.688459999999999628e-01 -7.481100000000000250e-02 -8.591210000000000235e-01 -5.706480000000000441e-01 7.474799999999999500e-02 8.619099999999999540e-01 -5.704369999999999719e-01 7.481200000000000350e-02 8.616639999999999855e-01 -5.703519999999999701e-01 7.614200000000000135e-02 8.620879999999999654e-01 -5.698499999999999677e-01 7.421999999999999431e-02 8.612389999999999768e-01 -5.702789999999999804e-01 7.632200000000000095e-02 8.620470000000000077e-01 5.685799999999999743e-01 -7.513699999999999546e-02 -8.591370000000000395e-01 5.692390000000000505e-01 -7.556100000000000316e-02 -8.591550000000000020e-01 5.682249999999999801e-01 -7.538899999999999768e-02 -8.595779999999999532e-01 5.690469999999999695e-01 -7.504700000000000260e-02 -8.592330000000000245e-01 5.682859999999999578e-01 -7.489099999999999924e-02 -8.595899999999999652e-01 -5.707480000000000331e-01 7.477599999999999525e-02 8.620679999999999454e-01 -5.707109999999999683e-01 7.504800000000000360e-02 8.619459999999999900e-01 5.690870000000000095e-01 -7.526199999999999557e-02 -8.597000000000000197e-01 -5.701929999999999499e-01 7.564700000000000590e-02 8.624859999999999749e-01 -5.700589999999999824e-01 7.409699999999999620e-02 8.616129999999999622e-01 5.684379999999999988e-01 -7.527000000000000357e-02 -8.605399999999999716e-01 -5.704810000000000159e-01 7.591699999999999837e-02 8.627340000000000009e-01 5.691249999999999920e-01 -7.532300000000000106e-02 -8.597580000000000222e-01 5.686820000000000208e-01 -7.496700000000000585e-02 -8.587970000000000326e-01 -5.695329999999999560e-01 7.398699999999999721e-02 8.608230000000000048e-01 5.685489999999999711e-01 -7.555599999999999816e-02 -8.599940000000000362e-01 -5.709539999999999615e-01 7.495699999999999585e-02 8.630750000000000366e-01 -5.696010000000000240e-01 7.420799999999999619e-02 8.606759999999999966e-01 -5.692660000000000498e-01 7.522099999999999620e-02 8.613210000000000033e-01 5.682169999999999721e-01 -7.475700000000000400e-02 -8.587110000000000021e-01 5.689490000000000380e-01 -7.562299999999999578e-02 -8.596780000000000532e-01 -5.694379999999999997e-01 7.524500000000000632e-02 8.612499999999999600e-01 -5.699570000000000469e-01 7.470100000000000351e-02 8.600700000000000012e-01 -5.708560000000000301e-01 7.482400000000000162e-02 8.622729999999999562e-01 -5.697520000000000362e-01 7.447399999999999853e-02 8.599229999999999929e-01 -5.694179999999999797e-01 7.519499999999999795e-02 8.611140000000000461e-01 -5.693279999999999452e-01 7.521799999999999320e-02 8.612370000000000303e-01 5.686179999999999568e-01 -7.433199999999999530e-02 -8.586110000000000131e-01 5.686909999999999465e-01 -7.531799999999999606e-02 -8.598970000000000224e-01 5.684529999999999861e-01 -7.426199999999999468e-02 -8.587789999999999591e-01 5.692249999999999810e-01 -7.554299999999999904e-02 -8.597299999999999942e-01 -5.695329999999999560e-01 7.456699999999999440e-02 8.602680000000000327e-01 5.686379999999999768e-01 -7.535000000000000031e-02 -8.606449999999999934e-01 -5.708969999999999878e-01 7.507099999999999884e-02 8.626310000000000366e-01 -5.698790000000000244e-01 7.446400000000000241e-02 8.605270000000000419e-01 -5.693230000000000235e-01 7.509699999999999709e-02 8.612199999999999855e-01 5.686989999999999545e-01 -7.436700000000000255e-02 -8.594889999999999475e-01 5.691619999999999457e-01 -7.551700000000000079e-02 -8.603159999999999696e-01 -5.692599999999999882e-01 7.497600000000000098e-02 8.611769999999999703e-01 5.684620000000000228e-01 -7.465199999999999614e-02 -8.594589999999999730e-01 5.684310000000000196e-01 -7.481400000000000550e-02 -8.594450000000000145e-01 -5.708670000000000133e-01 7.496899999999999398e-02 8.620480000000000365e-01 -5.697250000000000369e-01 7.426699999999999968e-02 8.611659999999999870e-01 5.679920000000000524e-01 -7.470699999999999563e-02 -8.596679999999999877e-01 5.688769999999999660e-01 -7.480499999999999650e-02 -8.591980000000000173e-01 -5.702700000000000546e-01 7.602299999999999336e-02 8.625030000000000197e-01 -5.697609999999999619e-01 7.433800000000000130e-02 8.611990000000000478e-01 5.685040000000000093e-01 -7.482800000000000562e-02 -8.595009999999999595e-01 5.682080000000000464e-01 -7.517500000000000571e-02 -8.598829999999999529e-01 -5.704879999999999951e-01 7.489099999999999924e-02 8.618310000000000137e-01 -5.697429999999999994e-01 7.398000000000000409e-02 8.612250000000000183e-01 -5.702709999999999724e-01 7.591199999999999337e-02 8.622900000000000009e-01 -5.697510000000000074e-01 7.413400000000000545e-02 8.612819999999999920e-01 5.684559999999999613e-01 -7.514500000000000346e-02 -8.593680000000000208e-01 5.679570000000000451e-01 -7.532800000000000606e-02 -8.595720000000000027e-01 5.687400000000000233e-01 -7.488000000000000211e-02 -8.591640000000000388e-01 5.683049999999999491e-01 -7.476800000000000113e-02 -8.594000000000000528e-01 5.682850000000000401e-01 -7.556400000000000616e-02 -8.596179999999999932e-01 5.683650000000000091e-01 -7.510400000000000409e-02 -8.596190000000000220e-01 -5.705999999999999961e-01 7.496400000000000285e-02 8.617609999999999992e-01 -5.699940000000000007e-01 7.424400000000000444e-02 8.615909999999999958e-01 5.683719999999999883e-01 -7.520300000000000595e-02 -8.605949999999999989e-01 5.689710000000000045e-01 -7.503899999999999459e-02 -8.597280000000000477e-01 -5.703430000000000444e-01 7.602899999999999936e-02 8.624929999999999541e-01 -5.697119999999999962e-01 7.405599999999999683e-02 8.614680000000000115e-01 5.685710000000000486e-01 -7.486700000000000299e-02 -8.599780000000000202e-01 5.683890000000000331e-01 -7.531799999999999606e-02 -8.603469999999999729e-01 2.522631000000000068e+00 1.079829999999999957e-01 -1.972927000000000097e+00 8.000000000000000654e-05 2.770000000000000110e-04 7.889999999999999878e-04 2.523220999999999936e+00 1.077349999999999974e-01 -1.973155999999999910e+00 2.522114999999999885e+00 1.078449999999999964e-01 -1.971678000000000042e+00 5.680000000000000370e-04 -2.900000000000000017e-05 -1.070999999999999903e-03 2.410000000000000033e-04 4.020000000000000136e-04 6.939999999999999555e-04 2.522756000000000220e+00 1.093200000000000005e-01 -1.972147000000000094e+00 2.149999999999999947e-04 -1.245999999999999929e-03 1.412999999999999977e-03 2.099999999999999884e-05 -1.534999999999999906e-03 1.273000000000000043e-03 2.522320000000000118e+00 1.079549999999999954e-01 -1.971627999999999936e+00 -2.521977999999999831e+00 -1.058660000000000018e-01 1.969181000000000070e+00 -2.521367000000000136e+00 -1.069599999999999995e-01 1.967991000000000046e+00 -2.522298000000000151e+00 -1.061430000000000012e-01 1.969540999999999986e+00 -2.522200000000000220e+00 -1.066069999999999934e-01 1.969087999999999949e+00 2.660000000000000146e-04 -3.609999999999999928e-04 2.413999999999999913e-03 2.522866000000000053e+00 1.078100000000000031e-01 -1.972529999999999895e+00 2.522326000000000068e+00 1.085969999999999991e-01 -1.972061999999999982e+00 4.620000000000000083e-04 -9.200000000000000007e-05 1.019999999999999992e-04 3.780000000000000265e-04 -5.619999999999999996e-04 2.625999999999999862e-03 2.523324999999999818e+00 1.080959999999999976e-01 -1.971281999999999979e+00 -6.799999999999999946e-05 -4.899999999999999842e-04 1.988999999999999883e-03 -9.000000000000000228e-06 -7.770000000000000214e-04 1.451999999999999949e-03 2.523028000000000048e+00 1.073650000000000021e-01 -1.972976000000000063e+00 2.523003000000000107e+00 1.064719999999999972e-01 -1.975033999999999956e+00 -2.521739999999999871e+00 -1.071959999999999996e-01 1.969454999999999956e+00 -2.521097000000000143e+00 -1.071020000000000028e-01 1.968774999999999942e+00 -2.522012999999999838e+00 -1.074409999999999948e-01 1.969489000000000045e+00 -2.521691000000000127e+00 -1.076700000000000018e-01 1.967452999999999896e+00 2.522991000000000206e+00 1.070640000000000064e-01 -1.975165999999999977e+00 2.522081000000000017e+00 1.078410000000000063e-01 -1.973135000000000083e+00 2.523118999999999890e+00 1.084279999999999966e-01 -1.974687000000000081e+00 2.522291000000000061e+00 1.075369999999999937e-01 -1.972765000000000102e+00 4.620000000000000083e-04 -8.599999999999999789e-04 2.010000000000000068e-03 2.229999999999999994e-04 8.399999999999999535e-05 1.667999999999999995e-03 -2.521882000000000179e+00 -1.061409999999999992e-01 1.970968000000000053e+00 5.360000000000000181e-04 1.010000000000000020e-04 3.620000000000000171e-04 -2.521074000000000037e+00 -1.065539999999999959e-01 1.969522999999999913e+00 6.880000000000000265e-04 -8.700000000000000051e-05 1.529999999999999893e-03 -2.521854999999999958e+00 -1.062160000000000049e-01 1.971057999999999977e+00 -4.899999999999999842e-05 -3.910000000000000172e-04 2.299999999999999961e-03 -2.521920999999999857e+00 -1.069240000000000052e-01 1.969300999999999968e+00 2.523328999999999933e+00 1.065649999999999931e-01 -1.972358999999999973e+00 2.523238000000000092e+00 1.057529999999999998e-01 -1.972595000000000098e+00 2.523286999999999836e+00 1.059360000000000024e-01 -1.972653999999999908e+00 7.079999999999999705e-04 -1.013000000000000012e-03 -4.090000000000000211e-04 -2.059999999999999928e-04 -1.317999999999999944e-03 1.703000000000000087e-03 2.523061999999999916e+00 1.063650000000000012e-01 -1.972529999999999895e+00 2.521920000000000162e+00 1.076479999999999937e-01 -1.971937000000000051e+00 8.940000000000000464e-04 -1.010000000000000020e-04 -8.220000000000000310e-04 -2.290000000000000098e-04 -8.400000000000000348e-04 1.626999999999999974e-03 -2.521872000000000114e+00 -1.074910000000000032e-01 1.971365999999999952e+00 -2.521987000000000201e+00 -1.075919999999999932e-01 1.971265000000000045e+00 -2.522625999999999813e+00 -1.073520000000000030e-01 1.969886000000000026e+00 -2.521672999999999831e+00 -1.081130000000000008e-01 1.969443999999999972e+00 -2.522101999999999844e+00 -1.073660000000000031e-01 1.969654999999999934e+00 2.523884999999999934e+00 1.070559999999999984e-01 -1.973559000000000063e+00 6.840000000000000377e-04 -4.650000000000000270e-04 -8.639999999999999677e-04 -3.350000000000000113e-04 -9.030000000000000483e-04 1.655000000000000004e-03 2.522956999999999894e+00 1.061949999999999977e-01 -1.972131999999999996e+00 2.522248999999999963e+00 1.077589999999999937e-01 -1.971846999999999905e+00 6.539999999999999590e-04 -3.579999999999999741e-04 1.789999999999999870e-04 -3.640000000000000115e-04 -8.059999999999999673e-04 1.861999999999999940e-03 2.523356000000000154e+00 1.070709999999999995e-01 -1.972909999999999942e+00 2.523285000000000000e+00 1.065080000000000054e-01 -1.972347999999999990e+00 2.522034999999999805e+00 1.080559999999999993e-01 -1.971970999999999918e+00 2.523651999999999784e+00 1.069190000000000002e-01 -1.974420999999999982e+00 2.523305000000000131e+00 1.068920000000000009e-01 -1.973670999999999953e+00 -2.521492999999999984e+00 -1.072440000000000060e-01 1.968927000000000094e+00 -2.521983999999999781e+00 -1.073770000000000002e-01 1.969243000000000077e+00 -2.522638999999999854e+00 -1.063520000000000021e-01 1.969924999999999926e+00 -2.521911999999999932e+00 -1.063830000000000053e-01 1.967746999999999913e+00 -2.522368999999999861e+00 -1.059139999999999943e-01 1.969473999999999947e+00 2.523482000000000003e+00 1.066109999999999974e-01 -1.973732000000000042e+00 2.522409000000000123e+00 1.070269999999999971e-01 -1.974013000000000018e+00 2.521977999999999831e+00 1.083479999999999999e-01 -1.972736999999999963e+00 -2.522091999999999778e+00 -1.064829999999999943e-01 1.969891000000000059e+00 2.579999999999999828e-04 -1.466000000000000072e-03 1.740999999999999926e-03 -2.522034000000000109e+00 -1.076619999999999938e-01 1.969981999999999900e+00 9.009999999999999997e-04 -5.280000000000000405e-04 -7.380000000000000492e-04 -2.521386000000000127e+00 -1.079760000000000025e-01 1.969851000000000019e+00 -2.660000000000000146e-04 -1.337999999999999997e-03 1.680000000000000070e-03 -2.522485000000000088e+00 -1.068309999999999954e-01 1.970112000000000085e+00 7.770000000000000214e-04 -3.220000000000000206e-04 -5.159999999999999656e-04 -2.522029999999999994e+00 -1.075770000000000060e-01 1.968231999999999982e+00 2.522447999999999801e+00 1.092960000000000043e-01 -1.972040000000000015e+00 2.522034000000000109e+00 1.078879999999999978e-01 -1.971616000000000035e+00 7.339999999999999520e-04 -4.479999999999999933e-04 -1.347000000000000107e-03 -6.499999999999999431e-05 5.220000000000000031e-04 7.519999999999999558e-04 2.522726000000000024e+00 1.077309999999999934e-01 -1.972815999999999903e+00 2.522294000000000036e+00 1.089510000000000062e-01 -1.971802999999999972e+00 4.589999999999999896e-04 -5.450000000000000200e-04 -8.689999999999999808e-04 -4.000000000000000327e-05 -1.206999999999999957e-03 1.100999999999999982e-03 -2.521444999999999936e+00 -1.071560000000000012e-01 1.968220999999999998e+00 -2.522212999999999816e+00 -1.062540000000000012e-01 1.969248000000000109e+00 -2.521542999999999868e+00 -1.071399999999999991e-01 1.967951999999999924e+00 -2.522041000000000199e+00 -1.065590000000000009e-01 1.968604000000000021e+00 -2.521812999999999860e+00 -1.063540000000000041e-01 1.968687000000000076e+00 2.522082000000000157e+00 1.085279999999999995e-01 -1.971648999999999985e+00 5.450000000000000200e-04 -5.280000000000000405e-04 4.199999999999999768e-05 1.110000000000000011e-04 -4.249999999999999763e-04 2.524000000000000202e-03 2.522883000000000209e+00 1.075020000000000003e-01 -1.972750999999999921e+00 2.523016000000000147e+00 1.082069999999999976e-01 -1.971586999999999978e+00 7.510000000000000399e-04 -5.590000000000000351e-04 1.269999999999999970e-04 9.200000000000000007e-05 -8.540000000000000499e-04 1.809999999999999977e-03 2.522701000000000082e+00 1.079259999999999942e-01 -1.971031999999999895e+00 2.522622999999999838e+00 1.083849999999999952e-01 -1.972124999999999906e+00 2.522299999999999986e+00 1.081749999999999934e-01 -1.974326000000000025e+00 -2.521583999999999826e+00 -1.071850000000000025e-01 1.968944999999999945e+00 -2.522142000000000106e+00 -1.074600000000000000e-01 1.969885000000000108e+00 -2.521402999999999839e+00 -1.073039999999999966e-01 1.968801000000000023e+00 -2.522104999999999819e+00 -1.077000000000000041e-01 1.967834000000000083e+00 -2.521663000000000210e+00 -1.077150000000000052e-01 1.967716000000000021e+00 2.522078000000000042e+00 1.075399999999999967e-01 -1.972706000000000071e+00 2.522882000000000069e+00 1.067250000000000004e-01 -1.975093999999999905e+00 2.522778999999999883e+00 1.082219999999999988e-01 -1.974261999999999961e+00 -2.521774000000000182e+00 -1.069579999999999975e-01 1.968812000000000006e+00 2.239999999999999966e-04 -5.090000000000000123e-04 2.396999999999999825e-03 6.489999999999999459e-04 -3.000000000000000076e-06 -5.500000000000000196e-05 -2.521272000000000180e+00 -1.067160000000000053e-01 1.969511000000000012e+00 1.610000000000000103e-04 2.169999999999999891e-04 1.407999999999999963e-03 -2.522098000000000173e+00 -1.062010000000000037e-01 1.970909999999999940e+00 7.940000000000000009e-04 2.959999999999999849e-04 -2.400000000000000061e-04 -2.521253000000000188e+00 -1.067609999999999948e-01 1.969421000000000088e+00 -2.521850000000000147e+00 -1.069289999999999963e-01 1.969128999999999907e+00 2.521825000000000205e+00 1.072400000000000020e-01 -1.971805000000000030e+00 6.040000000000000447e-04 -3.399999999999999973e-05 -9.680000000000000019e-04 1.036000000000000029e-03 -1.149999999999999981e-03 -6.250000000000000130e-04 2.523317000000000032e+00 1.058670000000000028e-01 -1.972879000000000049e+00 8.090000000000000403e-04 -8.459999999999999638e-04 -8.819999999999999715e-04 2.522200999999999915e+00 1.077100000000000002e-01 -1.971877000000000102e+00 5.810000000000000277e-04 3.620000000000000171e-04 -9.700000000000000505e-04 -1.720000000000000066e-04 -1.335999999999999948e-03 1.449999999999999900e-03 2.522753999999999941e+00 1.065320000000000017e-01 -1.972407000000000021e+00 -2.521506000000000025e+00 -1.076229999999999964e-01 1.971106000000000025e+00 -2.521236000000000033e+00 -1.080910000000000065e-01 1.969189999999999996e+00 -2.522257999999999889e+00 -1.075099999999999945e-01 1.969975000000000032e+00 -2.521730999999999945e+00 -1.078230000000000022e-01 1.969716000000000022e+00 5.969999999999999829e-04 -6.870000000000000022e-04 2.820000000000000241e-04 8.109999999999999805e-04 -2.059999999999999928e-04 -1.234000000000000071e-03 2.523756000000000110e+00 1.072469999999999951e-01 -1.973146999999999984e+00 9.569999999999999514e-04 -3.179999999999999776e-04 -1.012000000000000096e-03 2.522240000000000038e+00 1.080200000000000049e-01 -1.972048000000000023e+00 8.310000000000000329e-04 -4.539999999999999765e-04 3.800000000000000209e-05 4.600000000000000004e-05 -6.740000000000000114e-04 1.469999999999999953e-03 2.523242999999999903e+00 1.063260000000000038e-01 -1.972256999999999927e+00 2.521936000000000178e+00 1.088009999999999949e-01 -1.972733000000000070e+00 -2.521523999999999877e+00 -1.072449999999999931e-01 1.969198000000000004e+00 -2.521409999999999929e+00 -1.065959999999999963e-01 1.968010000000000037e+00 -2.522241000000000177e+00 -1.062609999999999943e-01 1.969776999999999889e+00 -2.521662000000000070e+00 -1.064950000000000063e-01 1.968193000000000081e+00 2.522372999999999976e+00 1.084679999999999950e-01 -1.972580999999999918e+00 2.523308999999999802e+00 1.070939999999999948e-01 -1.973351999999999995e+00 2.523115999999999914e+00 1.068920000000000009e-01 -1.974461999999999939e+00 -2.521978999999999971e+00 -1.075419999999999987e-01 1.968347999999999987e+00 1.170999999999999949e-03 -6.359999999999999551e-04 -3.350000000000000113e-04 -2.521555000000000213e+00 -1.078989999999999949e-01 1.969967999999999941e+00 9.579999999999999757e-04 -3.299999999999999982e-04 -5.580000000000000107e-04 1.286000000000000034e-03 -3.240000000000000150e-04 -8.880000000000000089e-04 -2.521294000000000146e+00 -1.074060000000000015e-01 1.967993000000000103e+00 -4.399999999999999886e-05 -1.472000000000000001e-03 2.070999999999999924e-03 -2.522152999999999867e+00 -1.066359999999999947e-01 1.969970999999999917e+00 7.209999999999999612e-04 -6.369999999999999794e-04 -9.150000000000000147e-04