-4.702367703400000210e+02
-4.702367711200000144e+02
-4.702367725999999948e+02
-4.702367748699999765e+02
-4.702367779400000245e+02
-4.702367818100000250e+02
