-3.226899701754533389e-02 -3.999600244819502548e-02 -7.690999781928720136e-03 -3.089100105270603178e-02 1.562899768710735229e-02 2.342800015490241472e-02 -2.063000098151756417e-03 1.394999845305278530e-03 1.332000009994029326e-03 -2.310999936801191954e-03 -9.770001767163470716e-04 -1.936999986267711610e-03 -2.412900096346737994e-02 1.385299819036133438e-02 1.526100011935115769e-02 1.659899920493027731e-02 1.181500127321157174e-02 1.784499989657419364e-02 -3.707999802031775646e-03 -2.376000277130706044e-03 3.310000022840954830e-03 3.170000231456590622e-04 -2.439999751761622667e-04 8.499999984939316791e-04 1.160000077488056397e-04 -7.099999079637397059e-05 4.309999994306169856e-04 2.089999439394416621e-04 6.460000145031876946e-04 -1.305000001798924027e-03 5.500002457859779208e-05 -2.419999947046120930e-04 1.136999999938136064e-03 -6.300001979247119650e-05 2.589999951983345942e-04 -3.699999991095811254e-05 1.539999992503702608e-04 7.100001248311942829e-05 8.369999990790220412e-04 -1.788000075278135164e-03 1.072999865835901285e-03 1.064000008797707196e-03 -1.779999775717559405e-04 -2.640000130166860024e-04 4.460000012462376497e-04 -1.562999898926087892e-03 -1.320000117985341542e-03 2.250000099460510567e-04 -8.548001191029804338e-03 7.252999237248260525e-03 -1.163949999600611268e-01 -5.414999318970275741e-03 -6.619000376886538355e-03 3.268800003650158131e-02 1.354000134947278998e-03 -3.429998778708092224e-04 1.974799999286873040e-02 -1.526999905925017532e-03 1.909999041505157607e-04 1.966000000823803565e-02 -1.740999989571752251e-03 1.323999888335221755e-03 2.003000000828755386e-02 3.009999377486351820e-04 2.289000042827143543e-03 2.008499999605209418e-02 1.800003786604325836e-05 9.580000213248954927e-04 1.998599999894372023e-02 3.020001096988043704e-04 5.000042759940814086e-06 1.994199999832800899e-02 1.480001446655234494e-04 -4.749999691288456791e-04 1.969999999965752618e-02 9.619999923929773138e-04 1.554000092647937975e-03 1.991399999313764671e-02 4.440002344730757254e-04 -1.687999947091892898e-03 1.934999999923528793e-02 -3.159999520362453788e-04 7.949999956608437123e-04 1.958200000095016574e-02 5.003000318556359745e-03 -2.746999601571356933e-03 2.007299997512807660e-02 1.707000238036262109e-03 -1.836999852965309245e-03 1.795399999241254277e-02 -2.112999906201749878e-03 2.139998600958870989e-04 1.992500001144969363e-02 9.070001736288616509e-04 -6.889999094130795990e-04 2.201499999568171800e-02 1.223260005548532092e-01 -6.888990742329969413e-03 6.129999331659418370e-03 -5.317999936146873899e-03 -2.543000425450562922e-03 -2.327499996810526717e-02 -1.750001259143273841e-04 1.769999664016000515e-04 -2.038599999921082706e-02 -1.890699960997083151e-02 -4.622001422618501540e-03 7.331000108980714920e-03 -2.148001041952369173e-03 1.422599984369225454e-02 6.152999997646632115e-03 -4.133000085043411938e-03 -5.220003351135171256e-04 -2.255899997666502288e-02 -7.950000119508965693e-04 -1.290000079943768533e-03 -1.983999999432316252e-02 1.173999873974941903e-03 1.500000680372556665e-04 -2.077600000663014021e-02 1.579998509458610870e-04 4.479999911080130202e-04 -2.086500000131963697e-02 1.782999869966289501e-03 2.330001145066207637e-04 -2.036500001007464020e-02 5.349999036940101182e-04 -1.379999788540931362e-04 -1.933800000281528028e-02 1.431999887960442360e-03 3.500008850678654562e-05 -1.981800000793939101e-02 -2.105000452145026381e-03 4.406999819292475862e-03 -2.152999999278275289e-02 -7.880002062510425755e-04 1.271999920488744691e-03 -1.993699999692092467e-02 -8.149999846908845573e-04 -1.717000082367348395e-03 -2.075199999378624788e-02 -2.167999907131886849e-03 -2.662000183593322706e-03 -1.964899998537394249e-02
-3.224399702003009210e-02 -3.996300244630227039e-02 -7.688999782099678604e-03 -3.086800105172448835e-02 1.561499768883286600e-02 2.341400015478944246e-02 -2.060000097935904811e-03 1.391999845530171587e-03 1.330000009980466342e-03 -2.306999936865782117e-03 -9.760001764118283758e-04 -1.934999986290790105e-03 -2.410600096254490385e-02 1.383999819208984149e-02 1.525000011923718576e-02 1.657999920576056288e-02 1.180300127176060927e-02 1.783099989669105837e-02 -3.701999802286265288e-03 -2.373000276681918805e-03 3.305000022804838958e-03 3.150000231346193418e-04 -2.439999753294205321e-04 8.479999985049714107e-04 1.150000075975451415e-04 -6.899999087200421989e-05 4.309999994341391248e-04 2.089999441127816015e-04 6.440000145071832563e-04 -1.301000001796926396e-03 5.500002441629756511e-05 -2.399999947066098766e-04 1.134999999936138265e-03 -6.300001986810145377e-05 2.599999951983345643e-04 -3.699999991195698800e-05 1.549999992338106419e-04 7.100001255575305917e-05 8.339999990735021866e-04 -1.785000075132394358e-03 1.070999866061793241e-03 1.063000008783145361e-03 -1.769999776363464746e-04 -2.630000129390579699e-04 4.480000012397189328e-04 -1.560999899088388355e-03 -1.318000117836078729e-03 2.230000099330136125e-04 -8.546001190178594345e-03 7.246999237471440578e-03 -1.163229999600661618e-01 -5.412999319161823641e-03 -6.618000376756253550e-03 3.266700003648954215e-02 1.351000134772291405e-03 -3.419998781156798366e-04 1.972999999288429368e-02 -1.524999905873114557e-03 1.889999042837965226e-04 1.964200000822899014e-02 -1.737999989589959510e-03 1.322999888545131619e-03 2.001300000827199374e-02 3.009999379407591138e-04 2.285000042807166371e-03 2.006499999605609180e-02 1.800003783127640818e-05 9.570000213049179591e-04 1.996599999894472025e-02 3.000001095182968031e-04 6.000042589701635037e-06 1.992299999833805138e-02 1.470001438910135743e-04 -4.659999692214568715e-04 1.968299999965405708e-02 9.559999922605009982e-04 1.554000092170183204e-03 1.988999999317076633e-02 4.450002343626785982e-04 -1.687999947036240150e-03 1.932999999922976886e-02 -3.139999521356027557e-04 7.949999957941243601e-04 1.956400000093912878e-02 5.005000318554712890e-03 -2.747999601434081025e-03 2.005899997511803590e-02 1.698000237678542719e-03 -1.832999853655970218e-03 1.794399999245822885e-02 -2.113999906376738073e-03 2.149998600022770534e-04 1.990700001145421713e-02 9.020001735239843764e-04 -6.889999098102095191e-04 2.199599999570931927e-02 1.222530005546042381e-01 -6.885990747854972213e-03 6.125999332059371347e-03 -5.316999935977406028e-03 -2.544000425357950939e-03 -2.325799996810978820e-02 -1.720001257172603390e-04 1.759999666504661134e-04 -2.036399999922638634e-02 -1.889799961015521321e-02 -4.620001421943822212e-03 7.325000108929038446e-03 -2.147001040974695369e-03 1.421299984376688669e-02 6.151999997654099099e-03 -4.126000085073236109e-03 -5.200003345621300160e-04 -2.253699997670566280e-02 -7.970000115710975611e-04 -1.294000080081044888e-03 -1.982599999430812929e-02 1.167999873869488133e-03 1.530000676054494289e-04 -2.075400000660002076e-02 1.569998508238475523e-04 4.509999910513614154e-04 -2.084600000131710956e-02 1.779999870054607128e-03 2.330001142957120264e-04 -2.034900001005807840e-02 5.349999037768079276e-04 -1.379999788391099772e-04 -1.932300000281527916e-02 1.434999887821869361e-03 3.800008874965935028e-05 -1.980200000795894963e-02 -2.103000451759707169e-03 4.402999819458719086e-03 -2.151499999278979475e-02 -7.920002061461653029e-04 1.271999920205202188e-03 -1.991799999689884693e-02 -8.159999847538273966e-04 -1.715000082426996596e-03 -2.073599999378272427e-02 -2.165999906945859609e-03 -2.663000183422084815e-03 -1.962899998538398388e-02
-3.221199702273069843e-02 -3.992700244387811098e-02 -7.684999782312274506e-03 -3.083800105059168392e-02 1.559899769108778929e-02 2.340000015463982938e-02 -2.061000097854754579e-03 1.390999845455540181e-03 1.331000009986984915e-03 -2.307999936784632319e-03 -9.770001764864597819e-04 -1.933999986284271099e-03 -2.408500096166493395e-02 1.382799819367308211e-02 1.524500011913325521e-02 1.656799920655385727e-02 1.179200127084605726e-02 1.782399989676828125e-02 -3.699999802221675196e-03 -2.374000276532655523e-03 3.303000022794798114e-03 3.140000231456590435e-04 -2.439999754030530385e-04 8.499999985104912410e-04 1.140000075274347365e-04 -6.799999094663560450e-05 4.319999994386600553e-04 2.089999439725608130e-04 6.460000145091809474e-04 -1.299000001798924098e-03 5.600002442733726120e-05 -2.399999946289818685e-04 1.136999999930618423e-03 -6.200001986810145657e-05 2.599999952739648216e-04 -3.699999991747684422e-05 1.559999990880699876e-04 7.300001263238218630e-05 8.349999990659845699e-04 -1.786000075348245482e-03 1.073999865988160916e-03 1.065000008785668565e-03 -1.789999777820871477e-04 -2.610000130893196145e-04 4.490000012487609321e-04 -1.558999899234128931e-03 -1.316000117683819399e-03 2.240000099199761327e-04 -8.544001189662444457e-03 7.241999237647673074e-03 -1.162979999600722153e-01 -5.414999319357241374e-03 -6.616000376915506104e-03 3.265900003649858246e-02 1.347000134923552039e-03 -3.439998784182008600e-04 1.972999999290836817e-02 -1.525999905906233597e-03 1.889999042021730125e-04 1.963600000823451097e-02 -1.737999989623078634e-03 1.322999888539138367e-03 2.000700000827199468e-02 3.019999381400506220e-04 2.282000042877801744e-03 2.005999999605356798e-02 1.800003804160761809e-05 9.540000213019213682e-04 1.996299999894771485e-02 3.000001095017372412e-04 6.000042586705004417e-06 1.991999999833805185e-02 1.470001435884925182e-04 -4.619999692214568827e-04 1.968299999965006028e-02 9.549999921848707166e-04 1.555000092094552862e-03 1.988999999317528702e-02 4.430002341782989113e-04 -1.685999947193493869e-03 1.932399999923881118e-02 -3.129999522388323308e-04 7.959999958647602644e-04 1.955900000093260815e-02 4.997000318213552436e-03 -2.743999602046115222e-03 2.005199997515819815e-02 1.685000237084540668e-03 -1.824999854637165833e-03 1.794599999252199235e-02 -2.115999906301107431e-03 2.139998598510165417e-04 1.990700001146625611e-02 8.940001740738278812e-04 -6.969999104252403094e-04 2.198599999576146546e-02 1.222220005548366462e-01 -6.888990750198512904e-03 6.126999332233483073e-03 -5.316999935900127566e-03 -2.544000425343966899e-03 -2.324399996810978808e-02 -1.730001255974712292e-04 1.749999665828268626e-04 -2.035599999921986619e-02 -1.889699961008510162e-02 -4.621001421869191071e-03 7.324000108924516757e-03 -2.149001040888024947e-03 1.421199984361762488e-02 6.153999997666136611e-03 -4.122000085222847672e-03 -5.170003342456248744e-04 -2.252299997673073637e-02 -7.960000115804895466e-04 -1.293000079993428210e-03 -1.981399999431464679e-02 1.160999873622165727e-03 1.570000670860263715e-04 -2.074400000656537527e-02 1.569998507758165829e-04 4.519999910563557628e-04 -2.084100000131810723e-02 1.778999870087726335e-03 2.330001142260750219e-04 -2.034300001005255945e-02 5.349999038209668316e-04 -1.379999788311189735e-04 -1.931500000281527810e-02 1.435999887784878033e-03 3.900008883228173976e-05 -1.979500000796546866e-02 -2.104000451693469054e-03 4.402999819395074683e-03 -2.150299999278428020e-02 -7.920002060964866173e-04 1.271999920214192175e-03 -1.990899999689884486e-02 -8.169999847742592108e-04 -1.714000082492638183e-03 -2.072599999377820398e-02 -2.165999906361249124e-03 -2.670000183412096339e-03 -1.961899998537699336e-02
-3.215999702832569168e-02 -3.985200243993135272e-02 -7.670999782674221834e-03 -3.079100104882236122e-02 1.557399769462043497e-02 2.337800015440536644e-02 -2.059000097720053903e-03 1.388999845603804129e-03 1.328000009977942921e-03 -2.304999937129664517e-03 -9.720001762535756358e-04 -1.927999986305825109e-03 -2.404500095987353869e-02 1.380299819668031301e-02 1.522700011893743204e-02 1.653599920774573295e-02 1.177500126840890816e-02 1.780699989696189756e-02 -3.695999802594306279e-03 -2.369000276229135931e-03 3.304000022767724417e-03 3.150000230589890845e-04 -2.429999753294205349e-04 8.479999985039725352e-04 1.150000075274347337e-04 -6.799999087100534723e-05 4.319999994331402194e-04 2.099999440481910675e-04 6.450000145848111804e-04 -1.299000001803445005e-03 5.600002441077769932e-05 -2.399999946319784948e-04 1.133999999930618459e-03 -5.900001964121069317e-05 2.569999955008556288e-04 -3.699999993103977972e-05 1.529999993149607949e-04 7.000001240549140935e-05 8.349999990855407582e-04 -1.779000075353765311e-03 1.073999866516573733e-03 1.064000008747029635e-03 -1.749999776197869183e-04 -2.630000127848008290e-04 4.510000012286792255e-04 -1.560999899082868465e-03 -1.318000117835079962e-03 2.240000099330136097e-04 -8.547001189294262807e-03 7.240999237473722677e-03 -1.162449999600546624e-01 -5.418999319692882274e-03 -6.612000377224020072e-03 3.265300003651666616e-02 1.345000134960543233e-03 -3.449998785764534729e-04 1.972299999292040709e-02 -1.525999906133124369e-03 1.919999042021729770e-04 1.963600000823151684e-02 -1.737999989493897680e-03 1.320999888535142816e-03 2.000300000827399255e-02 3.009999382857912764e-04 2.280000042801172671e-03 2.005899999606108527e-02 1.900003802504804664e-05 9.540000213745549991e-04 1.995999999894219196e-02 2.980001094741379589e-04 6.000042430450104109e-06 1.991499999834909010e-02 1.470001433930731810e-04 -4.599999692294478920e-04 1.967499999964806429e-02 9.529999920926808489e-04 1.556000091940295963e-03 1.988699999318532460e-02 4.430002343941500114e-04 -1.688999947195491584e-03 1.932199999924180678e-02 -3.139999518772405764e-04 7.909999957861333676e-04 1.955600000094312452e-02 4.989000318202513329e-03 -2.743999602653154814e-03 2.004999997520235527e-02 1.668000236383436474e-03 -1.814999855912891426e-03 1.795599999260584154e-02 -2.121999906426416845e-03 2.149998593882451162e-04 1.989800001149837419e-02 8.760001746606628200e-04 -7.059999118035658250e-04 2.196899999586981317e-02 1.221590005546136365e-01 -6.886990754976203902e-03 6.113999332579236022e-03 -5.321999936029308750e-03 -2.542000425718123069e-03 -2.323999996808418650e-02 -1.730001255864315032e-04 1.749999665848246135e-04 -2.035399999921986766e-02 -1.889699961014582041e-02 -4.621001421880178810e-03 7.313000108924517031e-03 -2.150001040699773755e-03 1.420899984353500220e-02 6.146999997674653174e-03 -4.113000085470170340e-03 -5.130003335549637071e-04 -2.251299997678440912e-02 -7.980000116561197440e-04 -1.292000080144688591e-03 -1.981399999430460621e-02 1.147999873240142330e-03 1.630000661158184183e-04 -2.073100000649960931e-02 1.569998507112260245e-04 4.529999910583535380e-04 -2.083900000131910790e-02 1.776999869958545116e-03 2.350001140788100036e-04 -2.033900001004351754e-02 5.369999039076368092e-04 -1.389999786778607052e-04 -1.931300000282532014e-02 1.432999887952698254e-03 3.700008860838760672e-05 -1.979200000794691106e-02 -2.108000451676909481e-03 4.402999819095550389e-03 -2.149999999276219764e-02 -7.930002060263762744e-04 1.270999920137563018e-03 -1.990999999689232677e-02 -8.179999847687393450e-04 -1.714000082567269457e-03 -2.072499999377268309e-02 -2.170999905339416995e-03 -2.683000183783255596e-03 -1.961199998533640770e-02
-3.206699703761165671e-02 -3.972900243289474720e-02 -7.667999783310431271e-03 -3.071500104589980351e-02 1.553199770032238913e-02 2.333200015402780991e-02 -2.049000096790411663e-03 1.376999846364102128e-03 1.332000009934731057e-03 -2.311999937199774730e-03 -9.710001767819885369e-04 -1.926999986268184946e-03 -2.397400095736999456e-02 1.376799820202409194e-02 1.520100011858048321e-02 1.648299920941182287e-02 1.175100126437353398e-02 1.777999989727842636e-02 -3.689999803534988777e-03 -2.357000275781348433e-03 3.298000022722618642e-03 3.220000223838366668e-04 -2.339999747990098838e-04 8.489999984563436665e-04 1.120000070957326098e-04 -6.199999109390064752e-05 4.359999994437065715e-04 2.139999455403644659e-04 6.260000148973210443e-04 -1.289000001806545797e-03 7.000002465422799382e-05 -2.429999935701582312e-04 1.136999999856337130e-03 -6.500001950098986073e-05 2.549999950450763399e-04 -3.899999989592289266e-05 1.579999987579496922e-04 7.700001277864831233e-05 8.299999990509493832e-04 -1.781000075634207045e-03 1.077999866369308600e-03 1.068000008754073794e-03 -1.739999776954171784e-04 -2.620000127091706016e-04 4.510000012221605141e-04 -1.563999899433420483e-03 -1.313000118056976235e-03 2.290000099445788073e-04 -8.553001188041173958e-03 7.230999237109838815e-03 -1.161549999600115513e-01 -5.425999319851311162e-03 -6.611000377768414329e-03 3.263800003655430854e-02 1.342000134661894360e-03 -3.419998788163296612e-04 1.970999999293396657e-02 -1.522999905636831727e-03 1.849999044230704885e-04 1.963000000822194904e-02 -1.736999989370236483e-03 1.318999888605778756e-03 1.999800000827046953e-02 2.979999388632340279e-04 2.272000042569287653e-03 2.005399999608563355e-02 2.000003837008019962e-05 9.490000214441919905e-04 1.995399999894166901e-02 2.970001091920486955e-04 9.000042344831070282e-06 1.990499999835161279e-02 1.420001430574330422e-04 -4.559999696135924965e-04 1.966899999967166787e-02 9.489999916593309980e-04 1.561000091627786192e-03 1.987699999320240857e-02 4.410002341821711450e-04 -1.686999947357739789e-03 1.931099999925084756e-02 -3.119999518568089005e-04 7.899999959274051032e-04 1.954600000093308435e-02 4.980000317639982077e-03 -2.736999603339820321e-03 2.004399997524504429e-02 1.634000235055211008e-03 -1.796999858478326917e-03 1.796199999277553472e-02 -2.114999906756536829e-03 2.189998599126625014e-04 1.989300001145574009e-02 8.500001752033387687e-04 -7.149999137949244023e-04 2.194399999602232240e-02 1.220690005550122137e-01 -6.892990761792915089e-03 6.103999333082016539e-03 -5.325999935492729820e-03 -2.548000426005660787e-03 -2.322499996805611061e-02 -1.650001250774514063e-04 1.689999671998554701e-04 -2.034399999925803545e-02 -1.889299961046654944e-02 -4.618001421594638591e-03 7.296000108899441949e-03 -2.156001040231080024e-03 1.420199984307023156e-02 6.135999997714764592e-03 -4.101000086455587959e-03 -4.980003326204309431e-04 -2.248599997686562962e-02 -8.000000118758430123e-04 -1.288000080280965985e-03 -1.979899999429756211e-02 1.129999872535166101e-03 1.740000647774479195e-04 -2.070800000641124031e-02 1.569998508917335432e-04 4.519999910773322017e-04 -2.082000000131811052e-02 1.774999869987792288e-03 2.360001139465281201e-04 -2.032000001003347878e-02 5.349999038115748218e-04 -1.369999788191324436e-04 -1.930300000281627570e-02 1.429999887803085545e-03 4.000008839548110332e-05 -1.977800000793334886e-02 -2.112000451459410816e-03 4.400999818805016901e-03 -2.148799999273812156e-02 -7.940002060136888565e-04 1.271999920077914901e-03 -1.989399999688780396e-02 -8.189999847025010134e-04 -1.714000082630913208e-03 -2.071299999376716161e-02 -2.173999903554114585e-03 -2.705000183988170558e-03 -1.958999998529787137e-02
-3.194899704966116388e-02 -3.956800242394739597e-02 -7.644999784122592790e-03 -3.061000103992056812e-02 1.544899770820962540e-02 2.327800015353113233e-02 -2.050000098293624715e-03 1.395999846276485502e-03 1.320000009921272130e-03 -2.300999935788751796e-03 -9.890001759410660485e-04 -1.917999986310923652e-03 -2.388500095423381347e-02 1.372499820873420741e-02 1.518000011813216976e-02 1.640599921396512784e-02 1.168700125849806218e-02 1.772799989776738250e-02 -3.698999803791126230e-03 -2.355000276480998574e-03 3.279000022770299332e-03 2.790000234906913311e-04 -2.489999780561053086e-04 8.439999987086805417e-04 1.040000054318669588e-04 -3.999999169894276720e-05 4.359999994658901069e-04 1.919999460791683380e-04 6.180000132214687929e-04 -1.301000001677117936e-03 7.300002479996865051e-05 -2.449999933442663022e-04 1.135999999841775295e-03 -7.100001884956454623e-05 2.449999945723160821e-04 -5.799999985281499500e-05 1.530000006155870140e-04 5.200001239450382286e-05 8.239999991035204660e-04 -1.773000071232740246e-03 1.018999866963362895e-03 1.057000008768848708e-03 -1.569999773393453645e-04 -2.670000114274516888e-04 4.470000011333173672e-04 -1.555999898861497571e-03 -1.321000117457927408e-03 2.230000099084109510e-04 -8.540001187202156743e-03 7.230999238244862314e-03 -1.160029999600833001e-01 -5.423999321411369402e-03 -6.593000377653113545e-03 3.260200003652528877e-02 1.351000133717339922e-03 -3.289998781286652269e-04 1.971699999287130495e-02 -1.532999905396676852e-03 1.799999036417960433e-04 1.960500000828214323e-02 -1.725999988967781345e-03 1.311999889414737497e-03 1.997500000821674296e-02 3.159999397542375028e-04 2.260000043927635257e-03 2.005099999599826294e-02 3.000003859309880347e-05 9.470000222134800040e-04 1.996699999888846763e-02 2.760001097104208020e-04 2.000040754597924518e-06 1.990299999847452289e-02 1.450001442901733162e-04 -4.749999694236600907e-04 1.963199999967408724e-02 9.449999930284199877e-04 1.541000091299294349e-03 1.985099999324446696e-02 4.480002365802598788e-04 -1.718999946832323400e-03 1.930699999924417529e-02 -3.169999496856107965e-04 7.609999955452583691e-04 1.954200000098964968e-02 4.945000316828481596e-03 -2.726999605996868054e-03 2.003399997542824884e-02 1.610000233391345632e-03 -1.774999860293453424e-03 1.796199999288603660e-02 -2.116999907746897665e-03 2.309998597464188214e-04 1.987800001145479181e-02 8.140001750874220447e-04 -7.149999165385900485e-04 2.192299999622103479e-02 1.219020005534449946e-01 -6.875990774474111805e-03 6.052999333986851943e-03 -5.309999937228930024e-03 -2.523000424767608309e-03 -2.319699996816940168e-02 -1.800001253540208760e-04 1.719999660564116965e-04 -2.035299999917823330e-02 -1.886699961151210719e-02 -4.606001419653223822e-03 7.271000108743938019e-03 -2.161001038371218597e-03 1.417499984265911846e-02 6.102999997769333745e-03 -4.073000088748799340e-03 -4.660003304798096936e-04 -2.246299997705215185e-02 -8.000000115490181821e-04 -1.294000080303940158e-03 -1.982199999429156909e-02 1.094999872927652834e-03 1.710000621603552145e-04 -2.067800000621504777e-02 1.499998513990659387e-04 4.449999905439248915e-04 -2.082400000127247741e-02 1.792999870421142262e-03 2.310001153178615737e-04 -2.031000001012784467e-02 5.259999066949167142e-04 -1.759999795117911825e-04 -1.931500000272763987e-02 1.420999888865781156e-03 2.500008770182342519e-05 -1.979100000786868443e-02 -2.120000451203272584e-03 4.398999818218952453e-03 -2.146899999269196238e-02 -7.770002063995844026e-04 1.278999921389600098e-03 -1.986799999698863478e-02 -8.299999842763187540e-04 -1.720000083467840453e-03 -2.071799999370045262e-02 -2.189999902255712182e-03 -2.721000185182272622e-03 -1.957399998519357420e-02
