9.358905886094863291e+00 0.000000000000000000e+00 4.000468053012537974e-17 0.000000000000000000e+00 1.613472046000000049e+01 0.000000000000000000e+00 2.087393778113029175e+00 0.000000000000000000e+00 2.156915910234539524e+01
9.358905886094863291e+00 0.000000000000000000e+00 4.000468053012537974e-17 0.000000000000000000e+00 1.613472046000000049e+01 0.000000000000000000e+00 2.087393778113029175e+00 0.000000000000000000e+00 2.156915910234539524e+01
9.358905886094863291e+00 0.000000000000000000e+00 4.000468053012537974e-17 0.000000000000000000e+00 1.613472046000000049e+01 0.000000000000000000e+00 2.087393778113029175e+00 0.000000000000000000e+00 2.156915910234539524e+01
9.358905886094863291e+00 0.000000000000000000e+00 4.000468053012537974e-17 0.000000000000000000e+00 1.613472046000000049e+01 0.000000000000000000e+00 2.087393778113029175e+00 0.000000000000000000e+00 2.156915910234539524e+01
9.358905886094863291e+00 0.000000000000000000e+00 4.000468053012537974e-17 0.000000000000000000e+00 1.613472046000000049e+01 0.000000000000000000e+00 2.087393778113029175e+00 0.000000000000000000e+00 2.156915910234539524e+01
