9.727266632855439354e+00 3.899999999999999821e-03 4.855583654869642274e+00 1.928179125973656927e+00 2.693020000000000191e+00 4.855584379439767062e+00 3.249645721056430014e-01 3.581490000000000062e+00 2.306040848223681827e+00 1.884787852927107821e+00 8.923699999999999966e-01 2.306038134649647464e+00 3.487992453297454443e+00 3.899999999999999821e-03 4.855582629133192718e+00 5.047815734118918485e+00 2.693020000000000191e+00 4.855579915559158799e+00 3.444601180250905337e+00 3.581490000000000062e+00 2.306036384343073564e+00 5.004425424339829398e+00 8.923699999999999966e-01 2.306043624266705727e+00 6.607629061442717777e+00 3.899999999999999821e-03 4.855578165252584455e+00 8.167443352033975756e+00 2.693020000000000191e+00 4.855586368443677081e+00 6.564238751663627802e+00 3.581490000000000062e+00 2.306041873960131827e+00 8.124052078987425318e+00 8.923699999999999966e-01 2.306040123653557483e+00 9.727266632855439354e+00 5.382139999999999702e+00 4.855583654869642274e+00 1.928179125973656927e+00 8.071260000000000545e+00 4.855584379439767062e+00 3.249645721056430014e-01 8.959730000000000416e+00 2.306040848223681827e+00 1.884787852927107821e+00 6.270609999999999573e+00 2.306038134649647464e+00 3.487992453297454443e+00 5.382139999999999702e+00 4.855582629133192718e+00 5.047815734118918485e+00 8.071260000000000545e+00 4.855579915559158799e+00 3.444601180250905337e+00 8.959730000000000416e+00 2.306036384343073564e+00 5.004425424339829398e+00 6.270609999999999573e+00 2.306043624266705727e+00 6.607629061442717777e+00 5.382139999999999702e+00 4.855578165252584455e+00 8.167443352033975756e+00 8.071260000000000545e+00 4.855586368443677081e+00 6.564238751663627802e+00 8.959730000000000416e+00 2.306041873960131827e+00 8.124052078987425318e+00 6.270609999999999573e+00 2.306040123653557483e+00 9.727266632855439354e+00 1.076037999999999961e+01 4.855583654869642274e+00 1.928179125973656927e+00 1.344950000000000045e+01 4.855584379439767062e+00 3.249645721056430014e-01 1.433797000000000033e+01 2.306040848223681827e+00 1.884787852927107821e+00 1.164884999999999948e+01 2.306038134649647464e+00 3.487992453297454443e+00 1.076037999999999961e+01 4.855582629133192718e+00 5.047815734118918485e+00 1.344950000000000045e+01 4.855579915559158799e+00 3.444601180250905337e+00 1.433797000000000033e+01 2.306036384343073564e+00 5.004425424339829398e+00 1.164884999999999948e+01 2.306043624266705727e+00 6.607629061442717777e+00 1.076037999999999961e+01 4.855578165252584455e+00 8.167443352033975756e+00 1.344950000000000045e+01 4.855586368443677081e+00 6.564238751663627802e+00 1.433797000000000033e+01 2.306041873960131827e+00 8.124052078987425318e+00 1.164884999999999948e+01 2.306040123653557483e+00 1.042306458040608774e+01 3.899999999999999821e-03 1.204530357794622297e+01 2.623977073524306647e+00 2.693020000000000191e+00 1.204530430251634776e+01 1.020762519656292611e+00 3.581490000000000062e+00 9.495760771300261638e+00 2.580585800477757541e+00 8.923699999999999966e-01 9.495758057726227719e+00 4.183790400848104163e+00 3.899999999999999821e-03 1.204530255220977253e+01 5.743613681669568649e+00 2.693020000000000191e+00 1.204529983863573861e+01 4.140399127801554613e+00 3.581490000000000062e+00 9.495756307419652487e+00 5.700223371890478674e+00 8.923699999999999966e-01 9.495763547343285538e+00 7.303427008993367053e+00 3.899999999999999821e-03 1.204529808832916515e+01 8.863241299584625921e+00 2.693020000000000191e+00 1.204530629152025689e+01 7.260036699214277967e+00 3.581490000000000062e+00 9.495761797036712082e+00 8.819850026538075483e+00 8.923699999999999966e-01 9.495760046730136850e+00 1.042306458040608774e+01 5.382139999999999702e+00 1.204530357794622297e+01 2.623977073524306647e+00 8.071260000000000545e+00 1.204530430251634776e+01 1.020762519656292611e+00 8.959730000000000416e+00 9.495760771300261638e+00 2.580585800477757541e+00 6.270609999999999573e+00 9.495758057726227719e+00 4.183790400848104163e+00 5.382139999999999702e+00 1.204530255220977253e+01 5.743613681669568649e+00 8.071260000000000545e+00 1.204529983863573861e+01 4.140399127801554613e+00 8.959730000000000416e+00 9.495756307419652487e+00 5.700223371890478674e+00 6.270609999999999573e+00 9.495763547343285538e+00 7.303427008993367053e+00 5.382139999999999702e+00 1.204529808832916515e+01 8.863241299584625921e+00 8.071260000000000545e+00 1.204530629152025689e+01 7.260036699214277967e+00 8.959730000000000416e+00 9.495761797036712082e+00 8.819850026538075483e+00 6.270609999999999573e+00 9.495760046730136850e+00 1.042306458040608774e+01 1.076037999999999961e+01 1.204530357794622297e+01 2.623977073524306647e+00 1.344950000000000045e+01 1.204530430251634776e+01 1.020762519656292611e+00 1.433797000000000033e+01 9.495760771300261638e+00 2.580585800477757541e+00 1.164884999999999948e+01 9.495758057726227719e+00 4.183790400848104163e+00 1.076037999999999961e+01 1.204530255220977253e+01 5.743613681669568649e+00 1.344950000000000045e+01 1.204529983863573861e+01 4.140399127801554613e+00 1.433797000000000033e+01 9.495756307419652487e+00 5.700223371890478674e+00 1.164884999999999948e+01 9.495763547343285538e+00 7.303427008993367053e+00 1.076037999999999961e+01 1.204529808832916515e+01 8.863241299584625921e+00 1.344950000000000045e+01 1.204530629152025689e+01 7.260036699214277967e+00 1.433797000000000033e+01 9.495761797036712082e+00 8.819850026538075483e+00 1.164884999999999948e+01 9.495760046730136850e+00 1.111886252795673791e+01 3.899999999999999821e-03 1.923502350102280190e+01 3.319775021074956367e+00 2.693020000000000191e+00 1.923502422559292668e+01 1.716560467206942553e+00 3.581490000000000062e+00 1.668548069437684234e+01 3.276383748028407261e+00 8.923699999999999966e-01 1.668547798080280842e+01 4.879588348398754327e+00 3.899999999999999821e-03 1.923502247528635323e+01 6.439411629220217925e+00 2.693020000000000191e+00 1.923501976171231931e+01 4.836197075352204777e+00 3.581490000000000062e+00 1.668547623049623496e+01 6.396021319441128838e+00 8.923699999999999966e-01 1.668548347041986446e+01 7.999224956544017218e+00 3.899999999999999821e-03 1.923501801140574585e+01 9.559039247135274309e+00 2.693020000000000191e+00 1.923502621459683581e+01 7.955834646764927243e+00 3.581490000000000062e+00 1.668548172011329100e+01 9.515647974088725647e+00 8.923699999999999966e-01 1.668547996980671755e+01 1.111886252795673791e+01 5.382139999999999702e+00 1.923502350102280190e+01 3.319775021074956367e+00 8.071260000000000545e+00 1.923502422559292668e+01 1.716560467206942553e+00 8.959730000000000416e+00 1.668548069437684234e+01 3.276383748028407261e+00 6.270609999999999573e+00 1.668547798080280842e+01 4.879588348398754327e+00 5.382139999999999702e+00 1.923502247528635323e+01 6.439411629220217925e+00 8.071260000000000545e+00 1.923501976171231931e+01 4.836197075352204777e+00 8.959730000000000416e+00 1.668547623049623496e+01 6.396021319441128838e+00 6.270609999999999573e+00 1.668548347041986446e+01 7.999224956544017218e+00 5.382139999999999702e+00 1.923501801140574585e+01 9.559039247135274309e+00 8.071260000000000545e+00 1.923502621459683581e+01 7.955834646764927243e+00 8.959730000000000416e+00 1.668548172011329100e+01 9.515647974088725647e+00 6.270609999999999573e+00 1.668547996980671755e+01 1.111886252795673791e+01 1.076037999999999961e+01 1.923502350102280190e+01 3.319775021074956367e+00 1.344950000000000045e+01 1.923502422559292668e+01 1.716560467206942553e+00 1.433797000000000033e+01 1.668548069437684234e+01 3.276383748028407261e+00 1.164884999999999948e+01 1.668547798080280842e+01 4.879588348398754327e+00 1.076037999999999961e+01 1.923502247528635323e+01 6.439411629220217925e+00 1.344950000000000045e+01 1.923501976171231931e+01 4.836197075352204777e+00 1.433797000000000033e+01 1.668547623049623496e+01 6.396021319441128838e+00 1.164884999999999948e+01 1.668548347041986446e+01 7.999224956544017218e+00 1.076037999999999961e+01 1.923501801140574585e+01 9.559039247135274309e+00 1.344950000000000045e+01 1.923502621459683581e+01 7.955834646764927243e+00 1.433797000000000033e+01 1.668548172011329100e+01 9.515647974088725647e+00 1.164884999999999948e+01 1.668547996980671755e+01 3.466578004602679508e-01 1.792710000000000026e+00 3.580789086874574423e+00 9.742915884521011094e+00 3.597760000000000069e+00 5.897521467324065902e+00 1.869153691919569704e+00 2.676779999999999937e+00 1.264048628171971611e+00 3.093313743655650705e-01 5.365899999999999892e+00 1.264061295243672278e+00 1.906471127784066022e+00 4.481819999999999915e+00 3.580787336568000523e+00 1.943837367869435617e+00 9.086400000000000032e-01 5.897511275129063257e+00 3.466294408605530286e+00 1.792710000000000026e+00 3.580784622993966160e+00 3.503651658460693152e+00 3.597760000000000069e+00 5.897519478320154995e+00 4.988791263332291948e+00 2.676779999999999937e+00 1.264054117789030096e+00 3.428967982510827461e+00 5.365899999999999892e+00 1.264056831363064015e+00 5.026108699196787377e+00 4.481819999999999915e+00 3.580792826185058342e+00 5.063473976014697620e+00 9.086400000000000032e-01 5.897506811248454106e+00 6.585922026520586670e+00 1.792710000000000026e+00 3.580791075878484886e+00 6.623288266605955599e+00 3.597760000000000069e+00 5.897515014439547620e+00 8.108417917979886980e+00 2.676779999999999937e+00 1.264050617175881408e+00 6.548605553923549927e+00 5.365899999999999892e+00 1.264062320980122278e+00 8.145745307342052044e+00 4.481819999999999915e+00 3.580788362304450523e+00 8.183101593929754003e+00 9.086400000000000032e-01 5.897513264132973276e+00 3.466578004602679508e-01 7.170950000000000379e+00 3.580789086874574423e+00 9.742915884521011094e+00 8.976000000000000867e+00 5.897521467324065902e+00 1.869153691919569704e+00 8.055020000000000735e+00 1.264048628171971611e+00 3.093313743655650705e-01 1.074413999999999980e+01 1.264061295243672278e+00 1.906471127784066022e+00 9.860060000000000713e+00 3.580787336568000523e+00 1.943837367869435617e+00 6.286880000000000024e+00 5.897511275129063257e+00 3.466294408605530286e+00 7.170950000000000379e+00 3.580784622993966160e+00 3.503651658460693152e+00 8.976000000000000867e+00 5.897519478320154995e+00 4.988791263332291948e+00 8.055020000000000735e+00 1.264054117789030096e+00 3.428967982510827461e+00 1.074413999999999980e+01 1.264056831363064015e+00 5.026108699196787377e+00 9.860060000000000713e+00 3.580792826185058342e+00 5.063473976014697620e+00 6.286880000000000024e+00 5.897506811248454106e+00 6.585922026520586670e+00 7.170950000000000379e+00 3.580791075878484886e+00 6.623288266605955599e+00 8.976000000000000867e+00 5.897515014439547620e+00 8.108417917979886980e+00 8.055020000000000735e+00 1.264050617175881408e+00 6.548605553923549927e+00 1.074413999999999980e+01 1.264062320980122278e+00 8.145745307342052044e+00 9.860060000000000713e+00 3.580788362304450523e+00 8.183101593929754003e+00 6.286880000000000024e+00 5.897513264132973276e+00 3.466578004602679508e-01 1.254918999999999940e+01 3.580789086874574423e+00 9.742915884521011094e+00 1.435424000000000078e+01 5.897521467324065902e+00 1.869153691919569704e+00 1.343326000000000064e+01 1.264048628171971611e+00 3.093313743655650705e-01 1.612237999999999971e+01 1.264061295243672278e+00 1.906471127784066022e+00 1.523830000000000062e+01 3.580787336568000523e+00 1.943837367869435617e+00 1.166511999999999993e+01 5.897511275129063257e+00 3.466294408605530286e+00 1.254918999999999940e+01 3.580784622993966160e+00 3.503651658460693152e+00 1.435424000000000078e+01 5.897519478320154995e+00 4.988791263332291948e+00 1.343326000000000064e+01 1.264054117789030096e+00 3.428967982510827461e+00 1.612237999999999971e+01 1.264056831363064015e+00 5.026108699196787377e+00 1.523830000000000062e+01 3.580792826185058342e+00 5.063473976014697620e+00 1.166511999999999993e+01 5.897506811248454106e+00 6.585922026520586670e+00 1.254918999999999940e+01 3.580791075878484886e+00 6.623288266605955599e+00 1.435424000000000078e+01 5.897515014439547620e+00 8.108417917979886980e+00 1.343326000000000064e+01 1.264050617175881408e+00 6.548605553923549927e+00 1.612237999999999971e+01 1.264062320980122278e+00 8.145745307342052044e+00 1.523830000000000062e+01 3.580788362304450523e+00 8.183101593929754003e+00 1.166511999999999993e+01 5.897513264132973276e+00 1.042455748010917782e+00 1.792710000000000026e+00 1.077050900995115512e+01 1.043871383207166126e+01 3.597760000000000069e+00 1.308724139040064571e+01 2.564951639470219646e+00 2.676779999999999937e+00 8.453768551248552754e+00 1.005129321916214957e+00 5.365899999999999892e+00 8.453781218320253643e+00 2.602269075334715964e+00 4.481819999999999915e+00 1.077050725964457989e+01 2.639635315420085337e+00 9.086400000000000032e-01 1.308723119820564307e+01 4.162092356156180450e+00 1.792710000000000026e+00 1.077050454607054597e+01 4.199449606011342873e+00 3.597760000000000069e+00 1.308723940139673481e+01 5.684589210882941224e+00 2.676779999999999937e+00 8.453774040865610573e+00 4.124765930061477626e+00 5.365899999999999892e+00 8.453776754439644492e+00 5.721906646747437541e+00 4.481819999999999915e+00 1.077051274926163771e+01 5.759271923565347784e+00 9.086400000000000032e-01 1.308722673432503392e+01 7.281719974071235946e+00 1.792710000000000026e+00 1.077051099895506425e+01 7.319086214156605763e+00 3.597760000000000069e+00 1.308723493751612743e+01 8.804215865530537144e+00 2.676779999999999937e+00 8.453770540252461885e+00 7.244402538206740516e+00 5.365899999999999892e+00 8.453772290559035341e+00 8.841543254892700432e+00 4.481819999999999915e+00 1.077050828538103033e+01 8.878899541480404167e+00 9.086400000000000032e-01 1.308723318720955398e+01 1.042455748010917782e+00 7.170950000000000379e+00 1.077050900995115512e+01 1.043871383207166126e+01 8.976000000000000867e+00 1.308724139040064571e+01 2.564951639470219646e+00 8.055020000000000735e+00 8.453768551248552754e+00 1.005129321916214957e+00 1.074413999999999980e+01 8.453781218320253643e+00 2.602269075334715964e+00 9.860060000000000713e+00 1.077050725964457989e+01 2.639635315420085337e+00 6.286880000000000024e+00 1.308723119820564307e+01 4.162092356156180450e+00 7.170950000000000379e+00 1.077050454607054597e+01 4.199449606011342873e+00 8.976000000000000867e+00 1.308723940139673481e+01 5.684589210882941224e+00 8.055020000000000735e+00 8.453774040865610573e+00 4.124765930061477626e+00 1.074413999999999980e+01 8.453776754439644492e+00 5.721906646747437541e+00 9.860060000000000713e+00 1.077051274926163771e+01 5.759271923565347784e+00 6.286880000000000024e+00 1.308722673432503392e+01 7.281719974071235946e+00 7.170950000000000379e+00 1.077051099895506425e+01 7.319086214156605763e+00 8.976000000000000867e+00 1.308723493751612743e+01 8.804215865530537144e+00 8.055020000000000735e+00 8.453770540252461885e+00 7.244402538206740516e+00 1.074413999999999980e+01 8.453772290559035341e+00 8.841543254892700432e+00 9.860060000000000713e+00 1.077050828538103033e+01 8.878899541480404167e+00 6.286880000000000024e+00 1.308723318720955398e+01 1.042455748010917782e+00 1.254918999999999940e+01 1.077050900995115512e+01 1.043871383207166126e+01 1.435424000000000078e+01 1.308724139040064571e+01 2.564951639470219646e+00 1.343326000000000064e+01 8.453768551248552754e+00 1.005129321916214957e+00 1.612237999999999971e+01 8.453781218320253643e+00 2.602269075334715964e+00 1.523830000000000062e+01 1.077050725964457989e+01 2.639635315420085337e+00 1.166511999999999993e+01 1.308723119820564307e+01 4.162092356156180450e+00 1.254918999999999940e+01 1.077050454607054597e+01 4.199449606011342873e+00 1.435424000000000078e+01 1.308723940139673481e+01 5.684589210882941224e+00 1.343326000000000064e+01 8.453774040865610573e+00 4.124765930061477626e+00 1.612237999999999971e+01 8.453776754439644492e+00 5.721906646747437541e+00 1.523830000000000062e+01 1.077051274926163771e+01 5.759271923565347784e+00 1.166511999999999993e+01 1.308722673432503392e+01 7.281719974071235946e+00 1.254918999999999940e+01 1.077051099895506425e+01 7.319086214156605763e+00 1.435424000000000078e+01 1.308723493751612743e+01 8.804215865530537144e+00 1.343326000000000064e+01 8.453770540252461885e+00 7.244402538206740516e+00 1.612237999999999971e+01 8.453772290559035341e+00 8.841543254892700432e+00 1.523830000000000062e+01 1.077050828538103033e+01 8.878899541480404167e+00 1.166511999999999993e+01 1.308723318720955398e+01 1.738253695561567280e+00 1.792710000000000026e+00 1.796022893302773227e+01 1.113451177962230965e+01 3.597760000000000069e+00 2.027696131347722641e+01 3.260749587020869367e+00 2.676779999999999937e+00 1.564348847432513168e+01 1.700927269466864677e+00 5.365899999999999892e+00 1.564350114139683257e+01 3.298067022885365684e+00 4.481819999999999915e+00 1.796022718272116236e+01 3.335433262970735058e+00 9.086400000000000032e-01 2.027695112128222377e+01 4.857890303706829727e+00 1.792710000000000026e+00 1.796022446914712845e+01 4.895247553561993037e+00 3.597760000000000069e+00 2.027695932447331373e+01 6.380387158433591388e+00 2.676779999999999937e+00 1.564349396394218950e+01 4.820563877612126902e+00 5.365899999999999892e+00 1.564349667751622341e+01 6.417704594298086818e+00 4.481819999999999915e+00 1.796023267233821841e+01 6.455069871115997060e+00 9.086400000000000032e-01 2.027694665740161284e+01 7.977516958354426535e+00 1.792710000000000026e+00 1.796022096853397798e+01 8.014884161707255927e+00 3.597760000000000069e+00 2.027695486059270635e+01 9.500013813081187308e+00 2.676779999999999937e+00 1.564349046332904081e+01 7.940200485757389792e+00 5.365899999999999892e+00 1.564349221363561604e+01 9.537341202443350596e+00 4.481819999999999915e+00 1.796022820845761103e+01 9.574697489031052555e+00 9.086400000000000032e-01 2.027695311028613290e+01 1.738253695561567280e+00 7.170950000000000379e+00 1.796022893302773227e+01 1.113451177962230965e+01 8.976000000000000867e+00 2.027696131347722641e+01 3.260749587020869367e+00 8.055020000000000735e+00 1.564348847432513168e+01 1.700927269466864677e+00 1.074413999999999980e+01 1.564350114139683257e+01 3.298067022885365684e+00 9.860060000000000713e+00 1.796022718272116236e+01 3.335433262970735058e+00 6.286880000000000024e+00 2.027695112128222377e+01 4.857890303706829727e+00 7.170950000000000379e+00 1.796022446914712845e+01 4.895247553561993037e+00 8.976000000000000867e+00 2.027695932447331373e+01 6.380387158433591388e+00 8.055020000000000735e+00 1.564349396394218950e+01 4.820563877612126902e+00 1.074413999999999980e+01 1.564349667751622341e+01 6.417704594298086818e+00 9.860060000000000713e+00 1.796023267233821841e+01 6.455069871115997060e+00 6.286880000000000024e+00 2.027694665740161284e+01 7.977516958354426535e+00 7.170950000000000379e+00 1.796022096853397798e+01 8.014884161707255927e+00 8.976000000000000867e+00 2.027695486059270635e+01 9.500013813081187308e+00 8.055020000000000735e+00 1.564349046332904081e+01 7.940200485757389792e+00 1.074413999999999980e+01 1.564349221363561604e+01 9.537341202443350596e+00 9.860060000000000713e+00 1.796022820845761103e+01 9.574697489031052555e+00 6.286880000000000024e+00 2.027695311028613290e+01 1.738253695561567280e+00 1.254918999999999940e+01 1.796022893302773227e+01 1.113451177962230965e+01 1.435424000000000078e+01 2.027696131347722641e+01 3.260749587020869367e+00 1.343326000000000064e+01 1.564348847432513168e+01 1.700927269466864677e+00 1.612237999999999971e+01 1.564350114139683257e+01 3.298067022885365684e+00 1.523830000000000062e+01 1.796022718272116236e+01 3.335433262970735058e+00 1.166511999999999993e+01 2.027695112128222377e+01 4.857890303706829727e+00 1.254918999999999940e+01 1.796022446914712845e+01 4.895247553561993037e+00 1.435424000000000078e+01 2.027695932447331373e+01 6.380387158433591388e+00 1.343326000000000064e+01 1.564349396394218950e+01 4.820563877612126902e+00 1.612237999999999971e+01 1.564349667751622341e+01 6.417704594298086818e+00 1.523830000000000062e+01 1.796023267233821841e+01 6.455069871115997060e+00 1.166511999999999993e+01 2.027694665740161284e+01 7.977516958354426535e+00 1.254918999999999940e+01 1.796022096853397798e+01 8.014884161707255927e+00 1.435424000000000078e+01 2.027695486059270635e+01 9.500013813081187308e+00 1.343326000000000064e+01 1.564349046332904081e+01 7.940200485757389792e+00 1.612237999999999971e+01 1.564349221363561604e+01 9.537341202443350596e+00 1.523830000000000062e+01 1.796022820845761103e+01 9.574697489031052555e+00 1.166511999999999993e+01 2.027695311028613290e+01