-2.821734508380000079e+03
-2.821697102480000012e+03
-2.821584822259999783e+03
-2.821398558349999803e+03
-2.821139605329999995e+03
