-1.088555508605607231e-03 5.500000000000000331e-04 1.645509010818351284e-03 -1.298221723300151554e-03 2.130000000000000003e-04 1.430706593663279898e-03 1.171937279486478731e-03 -4.560000000000000251e-04 -2.766754960770800333e-03 1.300370679077117149e-03 -2.570000000000000127e-04 -2.322058590345325250e-03 -6.266482540019589461e-04 6.939999999999999555e-04 1.892161981902262032e-03 -1.673244328488942157e-03 1.062000000000000010e-03 1.272093713992641017e-03 1.143876269388044691e-03 -6.040000000000000447e-04 -2.205441697332053905e-03 1.407612593678610538e-03 -3.049999999999999868e-04 -1.940615053563528314e-03 -1.196086243793918931e-03 8.599999999999999789e-04 1.323369070745933004e-03 -6.142239397578376330e-04 5.330000000000000536e-04 1.304231172694611312e-03 1.015476628441188377e-03 2.900000000000000017e-05 -2.006146609071659311e-03 9.981384527682083188e-04 1.019999999999999992e-04 -1.936150983034506858e-03 -1.592235929881532890e-03 6.049999999999999606e-04 1.174838177620344095e-03 -1.270642346931649420e-03 1.046999999999999971e-03 8.644165813911894357e-04 1.394063482882614393e-03 -6.089999999999999494e-04 -1.748416142024888627e-03 1.313149814509784923e-03 -3.800000000000000209e-04 -2.273061715979774432e-03 -1.521308559912330121e-03 6.220000000000000485e-04 1.430193436405535149e-03 -1.104578788652990293e-03 6.880000000000000265e-04 1.116592897907690059e-03 9.985563210123810096e-04 -1.649999999999999991e-04 -1.755350470352350740e-03 1.536333696298082963e-03 1.000000000000000082e-05 -1.991249801913127972e-03 -1.594418245174429160e-03 1.940000000000000101e-03 1.577922830639982843e-03 -5.469892280940619796e-04 8.559999999999999901e-04 1.469523318749676099e-03 1.287591862946730389e-03 -4.369999999999999970e-04 -2.246476172692105262e-03 1.326056001960549281e-03 -2.719999999999999979e-04 -2.762581307340004205e-03 -1.643994197573882135e-03 1.164000000000000104e-03 1.148702345406941690e-03 -1.657221287918269909e-03 2.010000000000000068e-03 1.707575357889224137e-03 1.497644342532064143e-03 5.000000000000000409e-06 -1.653954480414047750e-03 8.762893498507049773e-04 -4.249999999999999763e-04 -1.544592818621862368e-03 -6.190727584918119183e-04 6.260000000000000373e-04 1.108789393750381691e-03 -1.454716691768216273e-03 6.470000000000000057e-04 1.329309725643703201e-03 1.334276815583038079e-03 -1.620000000000000075e-04 -2.314288525529517321e-03 1.304673060862986426e-03 -9.139999999999999904e-04 -2.360652495446631180e-03 -1.216314620974341416e-03 3.939999999999999817e-04 1.207780088759557741e-03 -1.503744930010439103e-03 6.419999999999999925e-04 1.632442092531279088e-03 1.382632682417044272e-03 -4.319999999999999838e-04 -1.876912588671153168e-03 9.932901129876558783e-04 -9.669999999999999776e-04 -1.944723823950581139e-03 -1.016409729407934462e-03 8.949999999999999623e-04 1.238667534879674776e-03 -1.176950101905144437e-03 4.710000000000000102e-04 1.220045268678777691e-03 1.118607218237378667e-03 -5.760000000000000146e-04 -2.207014927749070474e-03 1.210339728479366836e-03 -3.959999999999999762e-04 -2.297270933447879884e-03 -5.747942981681861043e-04 9.859999999999998974e-04 1.670134579844792825e-03 -1.740768100216246936e-03 1.221000000000000080e-03 1.072670695632876783e-03 1.166160468622259123e-03 -6.459999999999999814e-04 -1.736407141606689623e-03 1.396086105071616713e-03 -4.180000000000000230e-04 -1.820948265938921026e-03 -1.228708768725345112e-03 1.157999999999999958e-03 1.038185321441912430e-03 -5.268588539966029835e-04 7.420000000000000380e-04 9.300756678708385367e-04 1.019844771352075097e-03 -1.499999999999999869e-04 -1.441943702904463151e-03 9.937399837130636918e-04 6.799999999999999946e-05 -1.805117958685791956e-03 -1.490389430613259410e-03 5.249999999999999676e-04 1.064514605402990888e-03 -1.214517213537539024e-03 8.040000000000000271e-04 9.564381516967069468e-04 1.567896467372518771e-03 -6.049999999999999606e-04 -1.779304546051849352e-03 1.357266985218110638e-03 -3.669999999999999760e-04 -2.004060460873609024e-03 -1.555632165534572096e-03 4.859999999999999954e-04 1.397346973931034176e-03 -1.167349669264455521e-03 4.829999999999999767e-04 1.267340423748949604e-03 8.450478807977447734e-04 -1.939999999999999993e-04 -1.670167380581731023e-03 1.483356221121560643e-03 -3.300000000000000253e-05 -1.666637129449588745e-03 -1.603697934572634624e-03 1.936999999999999920e-03 1.398984608438372419e-03 -6.406161111234013814e-04 5.829999999999999679e-04 1.560967327707127403e-03 1.300050255136915144e-03 -6.980000000000000527e-04 -2.065836231195116151e-03 1.373031052392800419e-03 -3.040000000000000167e-04 -2.391380088811713867e-03 -1.586263671630379433e-03 8.959999999999999866e-04 1.236549863153811211e-03 -1.529078385251426801e-03 1.931999999999999907e-03 1.557534041925533750e-03 1.599425799105453272e-03 9.000000000000000567e-05 -2.086771456857670470e-03 9.136303686496258193e-04 -1.230000000000000082e-04 -1.802388567840228217e-03 -6.317226866159850228e-04 3.390000000000000001e-04 1.362186274785751267e-03 -1.536881410455313108e-03 4.960000000000000216e-04 1.258896949792511150e-03 1.303676513712762790e-03 -2.100000000000000087e-04 -2.827728513771033368e-03 1.090094501425419634e-03 -4.339999999999999782e-04 -2.501638458683042108e-03 -1.374991984560872387e-03 1.620000000000000075e-04 1.478323050754927091e-03 -1.604757448952914400e-03 5.940000000000000184e-04 1.419180584009708136e-03 1.329171577871331817e-03 -3.690000000000000246e-04 -2.335897240158272582e-03 1.238948612386171636e-03 -6.130000000000000466e-04 -2.063941698756624303e-03 -1.027454424633855766e-03 7.399999999999999894e-04 1.425600717347011177e-03 -9.842369155507752626e-04 1.369999999999999961e-04 1.446535064928291571e-03 1.303933172167205364e-03 -6.539999999999999590e-04 -2.908127109072430275e-03 1.373352035111994685e-03 -2.380000000000000117e-04 -2.429588686929074273e-03 -5.443553657387813303e-04 9.479999999999999495e-04 1.860085814093370878e-03 -1.749211574172685390e-03 9.330000000000000186e-04 1.442202436823734153e-03 1.120308219102624479e-03 -7.230000000000000098e-04 -2.490497037583282343e-03 1.406039123784882938e-03 -3.089999999999999756e-04 -2.008780471426939961e-03 -1.291896799150850155e-03 1.093999999999999920e-03 1.288435741643248868e-03 -6.805914712310249344e-04 2.919999999999999961e-04 1.241331643553643133e-03 8.992131197561977407e-04 -2.120000000000000031e-04 -2.086320149271996688e-03 9.657415417168338208e-04 1.410000000000000120e-04 -1.886800804166246072e-03 -1.337714970724421248e-03 6.689999999999999983e-04 1.302916596371295329e-03 -1.049962401760004375e-03 1.224000000000000045e-03 1.338363162557294848e-03 1.497386566519636614e-03 -3.970000000000000005e-04 -2.009583407178347145e-03 1.439269376557493051e-03 -6.279999999999999775e-04 -2.630874315071665866e-03 -1.450670170181086495e-03 5.760000000000000146e-04 1.682562645890719457e-03 -1.060589388392893821e-03 8.499999999999999526e-04 1.643807211697402180e-03 1.004238960421012863e-03 1.000000000000000082e-05 -1.945783418156430897e-03 1.468681196215704818e-03 -1.129999999999999955e-04 -2.306197637645656610e-03 -1.764237428988571325e-03 2.033000000000000085e-03 1.722955395289093748e-03 -7.023269185755948987e-04 1.221000000000000080e-03 1.909532639009899274e-03 1.297930108818371722e-03 -3.770000000000000022e-04 -2.461471802118141237e-03 1.315363094551501993e-03 -4.130000000000000099e-04 -3.122223715477784149e-03 -1.768155302046198370e-03 1.044999999999999922e-03 1.454082469410149410e-03 -1.600615239224360701e-03 1.877999999999999895e-03 1.524270269985852780e-03 1.637442302509833393e-03 7.200000000000000182e-05 -1.870427412638965775e-03 1.075166170739075234e-03 -1.240000000000000054e-04 -1.752717805380625245e-03 -5.354304975291221099e-04 3.849999999999999798e-04 1.402096352721779546e-03 -1.422897980669470767e-03 4.099999999999999912e-04 1.180552979161351903e-03 1.427967304446995864e-03 -1.689999999999999879e-04 -2.643845944345166003e-03 1.223310639322733881e-03 -4.169999999999999987e-04 -2.588876412600609866e-03 -1.078088055425470903e-03 2.640000000000000202e-04 1.732907136793235053e-03 -1.593262324222593021e-03 3.260000000000000094e-04 1.589867027840008527e-03 1.310870374215199414e-03 -4.189999999999999931e-04 -2.182420642773730962e-03 1.059528836280199940e-03 -6.409999999999999682e-04 -2.028493935187070281e-03 -3.214008496323405087e-04 2.079999999999999872e-04 3.435571187671851369e-04 -6.858120463533364138e-03 -3.719999999999999891e-04 6.516507558999277581e-04 5.329971986225869388e-03 9.210000000000000521e-04 4.275694400298877293e-04 5.759607465982551078e-03 9.810000000000001011e-04 -5.624196278563418786e-04 -3.901139018274121556e-04 -3.100000000000000135e-05 -3.560774404550115469e-04 -7.000841345929942512e-03 -5.199999999999999544e-04 4.434303204764522620e-04 4.476500181163950605e-04 -3.139999999999999888e-04 -2.432518474346932660e-04 -6.807486273962755872e-03 -2.380000000000000117e-04 5.623580974865520325e-04 6.721920591277581736e-03 9.770000000000000039e-04 3.390760453916840680e-04 6.191333564169222876e-03 1.193000000000000050e-03 -1.500889642567094899e-04 4.040151995681341810e-04 4.739999999999999747e-04 -2.269729466652817089e-04 -6.634746243194632360e-03 -4.270000000000000249e-04 3.225350236382749594e-05 5.493685872852986825e-04 1.599999999999999928e-05 -1.576520069778854065e-04 -6.323650359743573576e-03 -4.099999999999999912e-04 3.608145336803926756e-04 6.611209955913735156e-03 1.454999999999999913e-03 -4.519379590465012514e-04 6.741760707927956127e-03 8.180000000000000422e-04 -7.016748228622412403e-04 2.729481770989259271e-04 1.530000000000000056e-04 -9.687973434203737098e-04 -6.433106592119198358e-03 -9.799999999999999684e-05 4.236502973356015859e-04 -5.481023776851350841e-05 9.500000000000000523e-05 -6.909333092533309715e-04 -6.686120800414443316e-03 -5.630000000000000239e-04 -6.127973908767510997e-04 6.365228717633479236e-03 9.500000000000000523e-05 -9.796975922263338049e-04 6.749434206521067077e-03 5.280000000000000405e-04 -8.300107781489088647e-04 5.102263294221997137e-04 -1.250000000000000026e-04 -1.143465824921912006e-03 -7.218887348920737142e-03 -6.449999999999999570e-04 3.911910576587339502e-04 3.894489466247699468e-05 1.090000000000000067e-04 -8.537214388661728886e-04 -6.456033874349785193e-03 -6.200000000000000270e-05 -4.049945842207374261e-04 6.726510276964432940e-03 2.400000000000000061e-04 -3.505730935081596226e-04 6.521786653331599660e-03 9.550000000000000112e-04 -1.365572718102495012e-03 -2.869838708102141257e-04 2.570000000000000127e-04 -7.749595201652705349e-04 -7.031215395315603550e-03 -4.679999999999999915e-04 5.136828444447582654e-04 5.877993667831870076e-04 -3.190000000000000019e-04 -1.162024485288190708e-03 -6.931201020034759991e-03 -5.199999999999999544e-04 -3.630281254519244507e-04 6.848133766001885357e-03 -1.299999999999999920e-05 -1.076665186093085690e-03 5.728880351570890886e-03 5.410000000000000312e-04 -4.439086813580005305e-04 4.406476137223761533e-04 -2.970000000000000092e-04 -1.353741363969046844e-03 -6.477031508463401872e-03 -1.085999999999999943e-03 9.156267393106008177e-07 2.689679754158055824e-04 -8.399999999999999535e-05 -5.012396913660396164e-04 -7.017023281348805201e-03 -4.530000000000000064e-04 6.499494357324008247e-04 6.164907713985447006e-03 -4.800000000000000122e-04 -5.061994449253703465e-04 6.333124698273009598e-03 -9.600000000000000243e-05 5.987349631718695900e-04 3.495916258182615866e-04 -1.640000000000000019e-04 -3.844628657721635618e-04 -6.361186187324864398e-03 -9.610000000000000486e-04 -2.242906377612786657e-04 3.846516078111902816e-04 -5.400000000000000069e-04 -1.174514001878337096e-03 -6.216892473639121751e-03 -9.840000000000000656e-04 -1.970633685119319413e-04 5.790528111967458390e-03 -5.029999999999999749e-04 -3.363468217697273069e-04 6.432883053703973911e-03 -3.780000000000000265e-04 5.158117261412405733e-05 -4.752021017123114603e-05 2.280000000000000126e-04 -1.069197344987445243e-04 -6.718001520836399537e-03 -1.046999999999999971e-03 3.969692255576489476e-04 -1.879304480476931831e-04 -7.659999999999999708e-04 -7.584241205925569378e-04 -6.928501476380031880e-03 -7.349999999999999763e-04 5.991863581555797709e-04 6.231532781994350047e-03 -1.250000000000000026e-04 -1.811054580341807147e-04 6.354186337349096957e-03 -2.900000000000000017e-04 1.104354573770873035e-04 8.425118618742865099e-05 1.129999999999999955e-04 -1.467982889069597836e-04 -6.836384297758660647e-03 -8.239999999999999712e-04 2.637531674859050078e-04 -4.014134195196588533e-04 -3.409999999999999945e-04 6.275852664216508567e-04 -7.098867336618989651e-03 -2.015999999999999997e-03 4.167487697450777788e-04 5.869449963248964640e-03 5.879999999999999810e-04 -2.475361163885644996e-04 6.237311349021117286e-03 -8.000000000000000654e-05 -5.262671710950547581e-04 -2.924728988200294734e-04 -1.351999999999999903e-03 -2.087979967715419469e-04 -7.423255432934892060e-03 -1.100999999999999982e-03 2.934225236798331644e-04 2.958753795039427794e-04 -7.540000000000000044e-04 -1.712972848687272908e-04 -6.424278848911228919e-03 -1.508000000000000009e-03 -3.467827438495842650e-04 6.350847542325371853e-03 6.849999999999999535e-04 2.835621521638520006e-04 6.360638074039783041e-03 2.300000000000000002e-05 -6.637863293828010674e-04 1.819246706294683279e-04 -7.060000000000000303e-04 1.461554453872980865e-04 -6.062131067296529577e-03 -9.510000000000000224e-04 1.099649572637625335e-05 5.502050422037771567e-04 -5.760000000000000146e-04 4.842524254286600851e-04 -5.839526183716563061e-03 -1.864999999999999904e-03 -1.180463878679934481e-04 7.271192213212331577e-03 6.999999999999999929e-04 -6.872989539041075369e-05 6.458985526401446291e-03 8.200000000000000095e-05 -4.884444387406317034e-04 2.291223813956692304e-04 -1.059999999999999961e-03 -3.004678590857556668e-04 -6.277831469739868740e-03 -4.440000000000000045e-04 6.266370859945792800e-04 5.946368894112409625e-05 -2.599999999999999772e-04 -1.745395934953248294e-04 -6.371847571206098841e-03 -3.999999999999999819e-06 -8.119966313445813738e-04 6.228706106495956671e-03 -3.220000000000000206e-04 -6.359482989205980218e-04 6.188636415281605074e-03 1.005000000000000034e-03 -1.779587577234366001e-04 4.904192529854743340e-04 4.040000000000000080e-04 2.609730949756495339e-04 -6.993072638148831871e-03 -1.280000000000000105e-03 -1.199378071092425046e-04 -1.258640211512498357e-05 -2.249999999999999938e-04 -1.586135182752017070e-05 -6.600970192078480132e-03 4.220000000000000118e-04 -6.049632412729031607e-04 6.723524467141138092e-03 1.720000000000000066e-04 -2.568496442561229174e-04 7.079986735626672342e-03 1.301999999999999989e-03 -8.298510850450151318e-04 -2.134849671112238180e-04 7.820000000000000345e-04 6.073888118968934040e-04 -6.849645545874681087e-03 -1.270999999999999994e-03 2.291060625885493589e-05 4.779277407560698801e-04 -6.509999999999999945e-04 -3.144997211696681306e-04 -6.939518320054374918e-03 -3.060000000000000111e-04 -8.746059030384648394e-04 6.390787307801095579e-03 5.399999999999999798e-05 -7.571245514764627727e-04 5.914945635417506384e-03 1.087999999999999991e-03 -8.155600100884093876e-04 4.620018251870872507e-04 3.429999999999999889e-04 -4.375377852526568935e-04 -6.449066266331962387e-03 -1.907999999999999974e-03 -3.433792254332566365e-04 1.500747553051912076e-04 8.130000000000000291e-04 6.475550693339424124e-04 -7.072281633680179216e-03 3.759999999999999779e-04 5.045963673175174989e-04 6.287210279779022540e-03 6.520000000000000188e-04 6.433652911379398372e-04 6.751589308866948191e-03 8.009999999999999542e-04 6.767885965303743583e-04 1.523534771696440039e-04 5.469999999999999602e-04 2.766105890856652809e-04 -6.567931235763146795e-03 5.500000000000000196e-05 -6.995857933711929245e-04 4.079655540604183554e-04 4.569999999999999952e-04 1.875742698244509804e-04 -6.609670723617212806e-03 -5.190000000000000386e-04 -3.107570198041119565e-04 6.398496480851677097e-03 3.629999999999999872e-04 5.060067040353608599e-04 6.591657701943334953e-03 7.789999999999999616e-04 1.557714364417345015e-04 1.521936244146095477e-04 7.860000000000000233e-04 5.448734721818862276e-04 -7.005820569355967163e-03 -1.399999999999999979e-05 -5.215775589390858353e-04 -1.407613072632032329e-04 4.009999999999999893e-04 1.753746115535372810e-04 -6.630090317429341434e-03 3.229999999999999907e-04 1.322701127606415959e-04 6.127054495835624996e-03 6.520000000000000188e-04 3.484210169614850223e-04 6.621808133088203513e-03 3.390000000000000001e-04 5.296055594184614738e-04 1.327363401555001730e-04 7.630000000000000063e-04 6.241162263570170865e-04 -6.497357649250076056e-03 4.440000000000000045e-04 -6.762755190981999164e-04 -4.926957397339580330e-04 2.979999999999999793e-04 9.820264294040197128e-04 -7.150014683447341798e-03 6.710000000000000469e-04 7.291282647706319626e-04 5.446425833461293435e-03 -1.250000000000000026e-04 -3.934661873725220425e-04 5.718031183557474063e-03 -1.489999999999999897e-04 8.662288288116062884e-04 -4.241757401587105771e-04 -4.600000000000000004e-05 1.523946174069415981e-03 -7.249777189807964269e-03 -5.680000000000000370e-04 -3.432487409156363971e-04 4.707373925787275990e-04 -1.420000000000000092e-04 4.105646200395024698e-04 -6.510842515606891576e-03 8.319999999999999488e-04 -4.730314333802168093e-04 6.609797137030745846e-03 8.799999999999999771e-05 -4.769180299592081862e-04 5.967511309093200683e-03 9.100000000000000287e-05 1.046033353122531031e-03 3.446844697373103506e-04 5.010000000000000347e-04 1.713767083451514300e-03 -6.237345426967180403e-03 -5.159999999999999656e-04 -2.423035796095849377e-04 7.601286337828971462e-04 3.699999999999999811e-05 8.989596543245678998e-04 -5.632653444655623572e-03 4.620000000000000083e-04 6.789088605368197933e-05 6.583691790612742831e-03 0.000000000000000000e+00 -1.058106046773385359e-03 6.064123602817984154e-03 -2.039999999999999984e-04 7.051417798895802738e-04 2.045324070011272715e-04 -1.599999999999999928e-05 1.573615739145464015e-03 -6.580740378037791896e-03 3.490000000000000263e-04 7.123255479793828794e-05 -2.221221171471168349e-05 1.320000000000000101e-04 2.563058449909158976e-03 -6.400933299308616230e-03 -9.879999999999999460e-04 8.183867654123737215e-04 6.303234996686671136e-03 1.299999999999999920e-05 1.732888218133067301e-03 6.533641628261398389e-03 1.343000000000000010e-03 1.404165258596639298e-03 4.404624638340141917e-04 -9.799999999999999684e-05 1.571881298938717546e-03 -7.580518540778166670e-03 7.799999999999999859e-05 1.149552370672375689e-03 -1.374170042751261540e-04 3.950000000000000061e-04 2.151240704090560604e-03 -6.794449362517661004e-03 -2.469999999999999865e-04 9.669838986164018112e-04 6.533193593524107105e-03 2.069999999999999900e-04 1.980890322439779645e-03 6.657931540914358189e-03 1.376999999999999969e-03 1.245454774970888683e-03 -6.068695080702335692e-04 1.800000000000000113e-04 1.961579567637926000e-03 -6.866724987628390793e-03 6.000000000000000152e-05 8.222730351166176142e-04 3.215356447307583278e-04 -1.569999999999999944e-04 2.138974246962215085e-03 -6.946610345846472752e-03 -9.499999999999999981e-04 6.300743630546890668e-04 6.413621536134081133e-03 6.600000000000000506e-05 1.347462723505602877e-03 6.009316637897854987e-03 1.231000000000000106e-03 1.291146213828645072e-03 3.789102319277299399e-04 -3.150000000000000131e-04 1.153866559070187417e-03 -6.290384352687922696e-03 -7.380000000000000492e-04 1.161332723838851000e-03 2.285479332448455303e-04 -3.829999999999999854e-04 1.063932254520704715e-03 -6.797179232316646370e-03 -1.459000000000000010e-03 7.000053455248085978e-04 6.079695575279694085e-03 8.630000000000000518e-04 5.338452134509858588e-04 6.465792243931820643e-03 4.809999999999999823e-04 -5.634488959179335130e-04 1.537983783594392318e-04 -3.200000000000000262e-04 2.915408355856976565e-04 -6.066815722694672043e-03 -1.693999999999999976e-03 1.229112275939325078e-03 2.000352164328864156e-04 -7.349999999999999763e-04 7.693087235867329720e-04 -6.379292901500907727e-03 -2.320000000000000014e-03 6.475075882645302608e-04 6.410023687888804014e-03 9.940000000000000918e-04 6.666433234529869087e-04 6.507082419839470451e-03 4.840000000000000010e-04 -8.738697737169555130e-04 8.740004178857163674e-05 1.129999999999999955e-04 7.370082989324855784e-04 -7.137426205867387907e-03 -1.616999999999999948e-03 1.554755014720159015e-03 -2.908327098944407402e-04 -8.689999999999999808e-04 8.359021084166830956e-04 -7.057703494299302251e-03 -1.497000000000000067e-03 9.251477647140685144e-04 6.584497520259110885e-03 1.087999999999999991e-03 1.233102011256086096e-04 6.904740533125927442e-03 1.489999999999999897e-04 -9.796668669542240356e-04 7.750975082865015477e-05 1.630000000000000047e-04 3.441340415106889381e-04 -6.297481407490950443e-03 -1.428999999999999932e-03 7.038891406363723081e-04