2.443020000000000191e+00 3.665999999999999925e+00 3.958320000000000061e+00 7.210400000000000142e-01 4.533640000000000114e+00 1.878840000000000066e+00 1.775619999999999976e+00 1.282149999999999901e+00 1.878880000000000106e+00 4.874789999999999957e+00 3.665999999999999925e+00 3.958309999999999995e+00 3.152820000000000178e+00 4.533629999999999605e+00 1.878849999999999909e+00 4.207379999999999676e+00 1.282149999999999901e+00 1.878870000000000040e+00 7.306560000000000166e+00 3.665999999999999925e+00 3.958309999999999995e+00 5.584590000000000387e+00 4.533619999999999983e+00 1.878849999999999909e+00 6.639149999999999885e+00 1.282149999999999901e+00 1.878880000000000106e+00 2.298770000000000202e+00 5.148959999999999759e+00 7.738999999999999879e+00 3.353349999999999831e+00 1.897480000000000055e+00 7.739040000000000141e+00 4.730550000000000033e+00 5.148970000000000269e+00 7.738999999999999879e+00 5.785120000000000040e+00 1.897480000000000055e+00 7.739040000000000141e+00 7.162320000000000242e+00 5.148970000000000269e+00 7.739010000000000389e+00 8.216910000000000380e+00 1.897489999999999899e+00 7.739040000000000141e+00 4.020760000000000112e+00 4.281340000000000146e+00 9.818469999999999587e+00 6.452519999999999811e+00 4.281329999999999636e+00 9.818469999999999587e+00 8.884290000000000020e+00 4.281340000000000146e+00 9.818459999999999965e+00 5.598489999999999966e+00 4.896679999999999922e+00 1.567863999999999969e+01 3.876510000000000122e+00 5.764300000000000423e+00 1.359915999999999947e+01 4.931079999999999686e+00 2.512830000000000119e+00 1.359922000000000075e+01 8.030260000000000176e+00 4.896659999999999791e+00 1.567864999999999931e+01 6.308279999999999887e+00 5.764300000000000423e+00 1.359918000000000049e+01 7.362860000000000404e+00 2.512830000000000119e+00 1.359920999999999935e+01 1.046203000000000038e+01 4.896659999999999791e+00 1.567863000000000007e+01 8.740059999999999718e+00 5.764289999999999914e+00 1.359917000000000087e+01 9.794639999999999347e+00 2.512830000000000119e+00 1.359919999999999973e+01 1.388460000000000027e+00 6.917500000000000426e+00 3.958309999999999995e+00 2.765670000000000073e+00 1.016899000000000086e+01 3.958320000000000061e+00 2.098269999999999857e+00 7.785140000000000171e+00 1.878880000000000106e+00 3.820240000000000080e+00 6.917500000000000426e+00 3.958309999999999995e+00 5.197449999999999903e+00 1.016900000000000048e+01 3.958309999999999995e+00 4.530039999999999623e+00 7.785140000000000171e+00 1.878880000000000106e+00 6.251999999999999780e+00 6.917510000000000048e+00 3.958320000000000061e+00 7.629209999999999603e+00 1.016900000000000048e+01 3.958309999999999995e+00 6.961809999999999832e+00 7.785140000000000171e+00 1.878880000000000106e+00 3.676000000000000156e+00 8.400479999999999947e+00 7.739049999999999763e+00 6.107779999999999987e+00 8.400479999999999947e+00 7.739029999999999632e+00 8.539559999999999818e+00 8.400489999999999569e+00 7.739049999999999763e+00 2.966200000000000170e+00 7.532840000000000202e+00 9.818469999999999587e+00 4.343399999999999928e+00 1.078434000000000026e+01 9.818479999999999208e+00 5.397960000000000313e+00 7.532840000000000202e+00 9.818490000000000606e+00 6.775179999999999758e+00 1.078431999999999924e+01 9.818479999999999208e+00 7.829729999999999634e+00 7.532849999999999824e+00 9.818479999999999208e+00 9.206950000000000855e+00 1.078431999999999924e+01 9.818479999999999208e+00 4.543929999999999580e+00 8.148179999999999978e+00 1.567864999999999931e+01 5.921129999999999782e+00 1.139966000000000079e+01 1.567864999999999931e+01 5.253750000000000142e+00 9.015819999999999723e+00 1.359920999999999935e+01 6.975699999999999790e+00 8.148170000000000357e+00 1.567864999999999931e+01 8.352919999999999234e+00 1.139967000000000041e+01 1.567863999999999969e+01 7.685509999999999842e+00 9.015810000000000102e+00 1.359919999999999973e+01 9.407469999999999999e+00 8.148170000000000357e+00 1.567863999999999969e+01 1.078468999999999944e+01 1.139967000000000041e+01 1.567863999999999969e+01 1.011730000000000018e+01 9.015819999999999723e+00 1.359919999999999973e+01 1.043700000000000072e+00 1.103660999999999959e+01 1.878840000000000066e+00 3.475459999999999994e+00 1.103661999999999921e+01 1.878840000000000066e+00 5.907239999999999824e+00 1.103661999999999921e+01 1.878840000000000066e+00 1.711109999999999909e+00 1.342048999999999914e+01 3.958320000000000061e+00 2.420920000000000183e+00 1.428814000000000028e+01 1.878870000000000040e+00 4.142890000000000406e+00 1.342048999999999914e+01 3.958309999999999995e+00 4.852689999999999948e+00 1.428814000000000028e+01 1.878870000000000040e+00 6.574650000000000105e+00 1.342050000000000054e+01 3.958309999999999995e+00 7.284469999999999779e+00 1.428814000000000028e+01 1.878870000000000040e+00 2.621430000000000149e+00 1.165196000000000076e+01 7.739010000000000389e+00 5.053189999999999849e+00 1.165196000000000076e+01 7.739010000000000389e+00 7.484980000000000189e+00 1.165196000000000076e+01 7.738999999999999879e+00 3.998660000000000103e+00 1.490348000000000006e+01 7.739040000000000141e+00 6.430430000000000312e+00 1.490347000000000044e+01 7.739040000000000141e+00 8.862209999999999255e+00 1.490347000000000044e+01 7.739049999999999763e+00 3.288839999999999986e+00 1.403584000000000032e+01 9.818479999999999208e+00 5.720609999999999751e+00 1.403581999999999930e+01 9.818479999999999208e+00 8.152390000000000470e+00 1.403581999999999930e+01 9.818479999999999208e+00 4.199160000000000004e+00 1.226730000000000054e+01 1.359917000000000087e+01 6.630939999999999834e+00 1.226728999999999914e+01 1.359917000000000087e+01 9.062699999999999534e+00 1.226727999999999952e+01 1.359917000000000087e+01 4.866570000000000285e+00 1.465116000000000085e+01 1.567864999999999931e+01 5.576389999999999958e+00 1.551880000000000059e+01 1.359920999999999935e+01 7.298350000000000115e+00 1.465116000000000085e+01 1.567864999999999931e+01 8.008169999999999789e+00 1.551880000000000059e+01 1.359919999999999973e+01 9.730130000000000834e+00 1.465117000000000047e+01 1.567863999999999969e+01 1.043993000000000038e+01 1.551880000000000059e+01 1.359919999999999973e+01 2.033749999999999947e+00 1.992348000000000141e+01 3.958309999999999995e+00 4.465539999999999843e+00 1.992348000000000141e+01 3.958309999999999995e+00 6.897300000000000431e+00 1.992349000000000103e+01 3.958309999999999995e+00 3.088330000000000020e+00 1.667199000000000098e+01 3.958309999999999995e+00 1.366349999999999953e+00 1.753960999999999970e+01 1.878849999999999909e+00 5.520089999999999719e+00 1.667197000000000173e+01 3.958320000000000061e+00 3.798109999999999875e+00 1.753961999999999932e+01 1.878849999999999909e+00 7.951870000000000438e+00 1.667198000000000135e+01 3.958320000000000061e+00 6.229890000000000150e+00 1.753960999999999970e+01 1.878840000000000066e+00 2.944090000000000096e+00 1.815494999999999948e+01 7.738999999999999879e+00 5.375849999999999795e+00 1.815494999999999948e+01 7.738999999999999879e+00 7.807620000000000005e+00 1.815493999999999986e+01 7.738999999999999879e+00 3.611509999999999998e+00 2.053882000000000119e+01 9.818479999999999208e+00 6.043269999999999698e+00 2.053883000000000081e+01 9.818469999999999587e+00 8.475049999999999528e+00 2.053882000000000119e+01 9.818479999999999208e+00 4.666059999999999874e+00 1.728731000000000151e+01 9.818469999999999587e+00 7.097839999999999705e+00 1.728731000000000151e+01 9.818479999999999208e+00 9.529609999999999914e+00 1.728732000000000113e+01 9.818469999999999587e+00 5.189239999999999853e+00 2.115416000000000096e+01 1.567864999999999931e+01 7.621000000000000441e+00 2.115415000000000134e+01 1.567863999999999969e+01 1.005277000000000065e+01 2.115415000000000134e+01 1.567863000000000007e+01 6.243789999999999729e+00 1.790266000000000091e+01 1.567863999999999969e+01 4.521810000000000329e+00 1.877027999999999963e+01 1.359917000000000087e+01 8.675560000000000827e+00 1.790265000000000128e+01 1.567864999999999931e+01 6.953579999999999650e+00 1.877027999999999963e+01 1.359917000000000087e+01 1.110734000000000066e+01 1.790265000000000128e+01 1.567863999999999969e+01 9.385369999999999990e+00 1.877027999999999963e+01 1.359917000000000087e+01 8.933900000000000174e-01 2.474089999999999900e+00 2.918569999999999887e+00 1.653610000000000024e+00 3.359189999999999898e+00 1.025230000000000086e+00 5.139949999999999797e+00 1.076499999999999957e-01 1.025209999999999955e+00 3.325159999999999894e+00 2.474089999999999900e+00 2.918559999999999821e+00 4.085390000000000299e+00 3.359189999999999898e+00 1.025220000000000020e+00 2.708190000000000097e+00 1.076600000000000057e-01 1.025209999999999955e+00 5.756929999999999659e+00 2.474079999999999835e+00 2.918579999999999952e+00 6.517159999999999620e+00 3.359189999999999898e+00 1.025230000000000086e+00 8.805799999999999628e+00 4.840449999999999697e+00 4.812070000000000292e+00 2.565059999999999896e+00 1.588959999999999928e+00 4.812120000000000175e+00 3.942260000000000097e+00 4.840440000000000076e+00 4.812079999999999913e+00 4.996839999999999726e+00 1.588969999999999994e+00 4.812129999999999797e+00 6.374030000000000307e+00 4.840440000000000076e+00 4.812079999999999913e+00 7.428609999999999935e+00 1.588969999999999994e+00 4.812129999999999797e+00 2.471119999999999983e+00 3.089420000000000055e+00 8.778729999999999478e+00 3.231349999999999945e+00 3.974520000000000053e+00 6.885399999999999743e+00 1.854139999999999899e+00 7.229900000000000215e-01 6.885369999999999990e+00 4.902890000000000192e+00 3.089409999999999989e+00 8.778729999999999478e+00 5.663120000000000154e+00 3.974530000000000118e+00 6.885399999999999743e+00 4.285919999999999952e+00 7.229900000000000215e-01 6.885379999999999612e+00 7.334679999999999644e+00 3.089409999999999989e+00 8.778729999999999478e+00 8.094889999999999475e+00 3.974540000000000184e+00 6.885379999999999612e+00 6.717699999999999783e+00 7.229900000000000215e-01 6.885390000000000121e+00 1.038354999999999961e+01 5.455759999999999721e+00 1.067224000000000039e+01 4.142809999999999881e+00 2.204299999999999926e+00 1.067229000000000028e+01 5.519989999999999952e+00 5.455770000000000231e+00 1.067224000000000039e+01 6.574580000000000091e+00 2.204299999999999926e+00 1.067228000000000065e+01 7.951780000000000292e+00 5.455770000000000231e+00 1.067223000000000077e+01 9.006360000000000809e+00 2.204289999999999861e+00 1.067228000000000065e+01 4.809090000000000309e+00 4.589879999999999960e+00 1.274555999999999933e+01 8.295429999999999637e+00 1.338330000000000020e+00 1.274554000000000009e+01 7.240859999999999630e+00 4.589879999999999960e+00 1.274554999999999971e+01 9.672639999999999461e+00 4.589870000000000339e+00 1.274554999999999971e+01 4.048849999999999838e+00 3.704759999999999831e+00 1.463889999999999958e+01 1.196128999999999998e+01 6.071119999999999628e+00 1.653239999999999910e+01 5.720539999999999736e+00 2.819630000000000081e+00 1.653246000000000038e+01 6.480640000000000178e+00 3.704759999999999831e+00 1.463889999999999958e+01 7.097730000000000317e+00 6.071119999999999628e+00 1.653240999999999872e+01 8.152309999999999945e+00 2.819650000000000212e+00 1.653246000000000038e+01 8.912409999999999499e+00 3.704759999999999831e+00 1.463888999999999996e+01 9.529500000000000526e+00 6.071100000000000385e+00 1.653240999999999872e+01 1.058408000000000015e+01 2.819650000000000212e+00 1.653247000000000000e+01 2.270630000000000148e+00 5.725600000000000023e+00 2.918639999999999901e+00 4.702410000000000423e+00 5.725590000000000401e+00 2.918639999999999901e+00 7.134170000000000122e+00 5.725579999999999892e+00 2.918649999999999967e+00 1.216040000000000010e+00 8.977059999999999818e+00 2.918569999999999887e+00 5.990600000000000369e-01 6.610640000000000072e+00 1.025220000000000020e+00 3.647819999999999840e+00 8.977069999999999439e+00 2.918569999999999887e+00 3.030839999999999979e+00 6.610649999999999693e+00 1.025220000000000020e+00 6.079589999999999606e+00 8.977080000000000837e+00 2.918569999999999887e+00 5.462620000000000253e+00 6.610649999999999693e+00 1.025220000000000020e+00 2.887719999999999843e+00 8.091950000000000642e+00 4.812120000000000175e+00 5.319480000000000430e+00 8.091960000000000264e+00 4.812120000000000175e+00 7.751260000000000261e+00 8.091960000000000264e+00 4.812120000000000175e+00 3.848370000000000068e+00 6.340930000000000177e+00 8.778800000000000381e+00 6.280129999999999768e+00 6.340910000000000046e+00 8.778800000000000381e+00 8.711909999999999599e+00 6.340910000000000046e+00 8.778800000000000381e+00 2.793779999999999930e+00 9.592409999999999215e+00 8.778729999999999478e+00 2.176810000000000134e+00 7.225979999999999848e+00 6.885379999999999612e+00 5.225539999999999630e+00 9.592420000000000613e+00 8.778729999999999478e+00 4.608570000000000277e+00 7.225990000000000357e+00 6.885379999999999612e+00 7.657329999999999970e+00 9.592409999999999215e+00 8.778729999999999478e+00 7.040350000000000108e+00 7.225979999999999848e+00 6.885379999999999612e+00 4.465449999999999697e+00 8.707280000000000797e+00 1.067229000000000028e+01 6.897219999999999906e+00 8.707300000000000040e+00 1.067228000000000065e+01 9.328989999999999227e+00 8.707300000000000040e+00 1.067228000000000065e+01 3.754539999999999988e+00 7.841319999999999624e+00 1.274554000000000009e+01 6.186300000000000132e+00 7.841319999999999624e+00 1.274554999999999971e+01 8.618080000000000851e+00 7.841310000000000002e+00 1.274554000000000009e+01 5.426090000000000302e+00 6.956260000000000332e+00 1.463897000000000048e+01 7.857870000000000132e+00 6.956260000000000332e+00 1.463896000000000086e+01 1.028964999999999996e+01 6.956249999999999822e+00 1.463896000000000086e+01 4.371509999999999785e+00 1.020775000000000077e+01 1.463888999999999996e+01 6.043190000000000062e+00 9.322630000000000194e+00 1.653246000000000038e+01 6.803289999999999615e+00 1.020773999999999937e+01 1.463888999999999996e+01 8.474970000000000780e+00 9.322630000000000194e+00 1.653245000000000076e+01 9.235060000000000713e+00 1.020773999999999937e+01 1.463888999999999996e+01 1.090673999999999921e+01 9.322620000000000573e+00 1.653245000000000076e+01 1.976269999999999971e+00 9.862180000000000391e+00 1.025230000000000086e+00 2.593280000000000030e+00 1.222857999999999912e+01 2.918629999999999836e+00 4.408050000000000246e+00 9.862190000000000012e+00 1.025230000000000086e+00 5.025050000000000239e+00 1.222857999999999912e+01 2.918639999999999901e+00 6.839809999999999945e+00 9.862190000000000012e+00 1.025220000000000020e+00 7.456830000000000069e+00 1.222856999999999950e+01 2.918639999999999901e+00 9.217199999999999838e-01 1.311363000000000056e+01 1.025209999999999955e+00 3.353489999999999860e+00 1.311364000000000019e+01 1.025220000000000020e+00 5.785249999999999559e+00 1.311363000000000056e+01 1.025220000000000020e+00 9.128460000000000463e+00 1.134342999999999968e+01 4.812070000000000292e+00 4.264910000000000423e+00 1.134343999999999930e+01 4.812079999999999913e+00 6.696690000000000254e+00 1.134342000000000006e+01 4.812079999999999913e+00 3.210370000000000168e+00 1.459493999999999936e+01 4.812120000000000175e+00 5.642129999999999868e+00 1.459495000000000076e+01 4.812140000000000306e+00 8.073919999999999320e+00 1.459495000000000076e+01 4.812129999999999797e+00 3.553999999999999826e+00 1.047752000000000017e+01 6.885399999999999743e+00 4.171009999999999884e+00 1.284392000000000067e+01 8.778810000000000002e+00 5.985780000000000101e+00 1.047752000000000017e+01 6.885379999999999612e+00 6.602780000000000094e+00 1.284390999999999927e+01 8.778800000000000381e+00 8.417550000000000310e+00 1.047751000000000055e+01 6.885390000000000121e+00 9.034560000000000812e+00 1.284389999999999965e+01 8.778810000000000002e+00 2.499449999999999950e+00 1.372897000000000034e+01 6.885369999999999990e+00 4.931219999999999715e+00 1.372897000000000034e+01 6.885379999999999612e+00 7.362989999999999924e+00 1.372897999999999996e+01 6.885379999999999612e+00 1.070620000000000083e+01 1.195875000000000021e+01 1.067223000000000077e+01 5.842640000000000278e+00 1.195875000000000021e+01 1.067224000000000039e+01 8.274419999999999220e+00 1.195875999999999983e+01 1.067223000000000077e+01 4.788100000000000023e+00 1.521027999999999913e+01 1.067229999999999990e+01 7.219870000000000232e+00 1.521029000000000053e+01 1.067229999999999990e+01 9.651650000000000063e+00 1.521029000000000053e+01 1.067229999999999990e+01 5.131730000000000125e+00 1.109285999999999994e+01 1.274555999999999933e+01 7.563519999999999577e+00 1.109285999999999994e+01 1.274554999999999971e+01 9.995290000000000674e+00 1.109286999999999956e+01 1.274557000000000073e+01 4.077189999999999870e+00 1.434430000000000049e+01 1.274554000000000009e+01 6.508960000000000079e+00 1.434431000000000012e+01 1.274554000000000009e+01 8.940739999999999910e+00 1.434430000000000049e+01 1.274554999999999971e+01 1.228392999999999979e+01 1.257410999999999923e+01 1.653238999999999947e+01 5.748759999999999870e+00 1.345925000000000082e+01 1.463896000000000086e+01 7.420390000000000263e+00 1.257408999999999999e+01 1.653239999999999910e+01 8.180519999999999570e+00 1.345923999999999943e+01 1.463897000000000048e+01 9.852159999999999584e+00 1.257409999999999961e+01 1.653239999999999910e+01 1.061229999999999940e+01 1.345923999999999943e+01 1.463896000000000086e+01 6.365850000000000009e+00 1.582562000000000069e+01 1.653246000000000038e+01 8.797610000000000596e+00 1.582560999999999929e+01 1.653246000000000038e+01 1.122939000000000043e+01 1.582562000000000069e+01 1.653245000000000076e+01 1.538689999999999891e+00 1.548006999999999955e+01 2.918569999999999887e+00 2.298919999999999852e+00 1.636517999999999873e+01 1.025220000000000020e+00 2.915929999999999911e+00 1.873157000000000139e+01 2.918639999999999901e+00 3.970470000000000166e+00 1.548005000000000031e+01 2.918579999999999952e+00 4.730690000000000062e+00 1.636516999999999911e+01 1.025230000000000086e+00 5.347710000000000186e+00 1.873156000000000176e+01 2.918629999999999836e+00 6.402230000000000310e+00 1.548006999999999955e+01 2.918569999999999887e+00 7.162469999999999892e+00 1.636517999999999873e+01 1.025230000000000086e+00 7.779490000000000016e+00 1.873156000000000176e+01 2.918639999999999901e+00 1.244369999999999976e+00 1.961662000000000106e+01 1.025220000000000020e+00 9.451119999999999521e+00 1.784640999999999877e+01 4.812079999999999913e+00 4.587570000000000370e+00 1.784641999999999840e+01 4.812059999999999782e+00 7.019330000000000069e+00 1.784640999999999877e+01 4.812070000000000292e+00 3.116420000000000190e+00 1.609540000000000148e+01 8.778740000000000876e+00 3.876660000000000217e+00 1.698050999999999888e+01 6.885390000000000121e+00 4.493680000000000341e+00 1.934690000000000154e+01 8.778800000000000381e+00 5.548199999999999577e+00 1.609540000000000148e+01 8.778729999999999478e+00 6.308430000000000426e+00 1.698051999999999850e+01 6.885390000000000121e+00 6.925430000000000419e+00 1.934690000000000154e+01 8.778790000000000759e+00 7.979969999999999786e+00 1.609538999999999831e+01 8.778729999999999478e+00 8.740199999999999747e+00 1.698050999999999888e+01 6.885390000000000121e+00 9.357219999999999871e+00 1.934688999999999837e+01 8.778810000000000002e+00 1.102885999999999989e+01 1.846173999999999893e+01 1.067223000000000077e+01 6.165309999999999846e+00 1.846176000000000172e+01 1.067224000000000039e+01 8.597080000000000055e+00 1.846173999999999893e+01 1.067224000000000039e+01 5.454399999999999693e+00 1.759583999999999904e+01 1.274555999999999933e+01 7.886169999999999902e+00 1.759584999999999866e+01 1.274555999999999933e+01 1.031794000000000011e+01 1.759584999999999866e+01 1.274555999999999933e+01 4.399849999999999817e+00 2.084729000000000099e+01 1.274554999999999971e+01 6.831620000000000026e+00 2.084729000000000099e+01 1.274554000000000009e+01 4.694169999999999732e+00 1.671073000000000164e+01 1.463889999999999958e+01 1.260659000000000063e+01 1.907707999999999871e+01 1.653239999999999910e+01 6.071419999999999817e+00 1.996223000000000170e+01 1.463896000000000086e+01 7.125939999999999941e+00 1.671074000000000126e+01 1.463890999999999920e+01 7.743030000000000079e+00 1.907708999999999833e+01 1.653238999999999947e+01 8.503180000000000405e+00 1.996224000000000132e+01 1.463896000000000086e+01 9.557700000000000529e+00 1.671073000000000164e+01 1.463888999999999996e+01 1.017479999999999940e+01 1.907708999999999833e+01 1.653239999999999910e+01 1.093495000000000061e+01 1.996224000000000132e+01 1.463897000000000048e+01