-2.221030773559999943e+03
-2.221047580890000063e+03
-2.221177189519999956e+03
-2.221422778940000171e+03
-2.221788547120000203e+03
-2.222279637980000189e+03
-2.222901827640000192e+03
-2.223661164210000152e+03
-2.224563709590000144e+03
-2.225615071079999780e+03
