2.071200000000000124e-02 -1.531382999999999939e+00 9.502570000000000183e-01 -2.193200000000000011e-02 1.533288999999999902e+00 -9.481049999999999756e-01 -2.077299999999999980e-02 1.530434000000000072e+00 -9.496940000000000381e-01 2.041899999999999965e-02 -1.530898000000000092e+00 9.502519999999999856e-01 -2.195799999999999835e-02 1.533679999999999932e+00 -9.479840000000000488e-01 -2.074099999999999902e-02 1.530653999999999959e+00 -9.498109999999999609e-01 2.036299999999999916e-02 -1.530813999999999897e+00 9.500880000000000436e-01 -2.165900000000000117e-02 1.532963999999999993e+00 -9.477539999999999853e-01 -2.078599999999999892e-02 1.530912999999999968e+00 -9.500539999999999541e-01 -2.146599999999999897e-02 1.533244000000000051e+00 -9.476099999999999524e-01 -2.127799999999999830e-02 1.531139999999999946e+00 -9.488490000000000535e-01 -2.177000000000000116e-02 1.533592000000000066e+00 -9.471530000000000227e-01 -2.085199999999999901e-02 1.531120999999999954e+00 -9.492380000000000262e-01 -2.205999999999999975e-02 1.533133999999999997e+00 -9.473799999999999999e-01 -2.044899999999999843e-02 1.531239000000000017e+00 -9.489959999999999507e-01 2.003500000000000072e-02 -1.531212000000000018e+00 9.494299999999999962e-01 2.104299999999999921e-02 -1.530866999999999978e+00 9.491089999999999804e-01 2.174299999999999844e-02 -1.531117000000000061e+00 9.495040000000000147e-01 1.989600000000000049e-02 -1.531522000000000050e+00 9.488990000000000480e-01 -2.226699999999999860e-02 1.533693999999999891e+00 -9.472260000000000124e-01 -2.115300000000000166e-02 1.530556000000000028e+00 -9.499680000000000346e-01 2.021999999999999839e-02 -1.531396999999999897e+00 9.492279999999999607e-01 -2.177300000000000069e-02 1.533377999999999908e+00 -9.475639999999999619e-01 -2.087400000000000019e-02 1.531064999999999898e+00 -9.494099999999999762e-01 2.091600000000000056e-02 -1.530764000000000014e+00 9.493759999999999977e-01 -2.295700000000000171e-02 1.533468000000000053e+00 -9.474639999999999729e-01 -2.076499999999999874e-02 1.531334999999999891e+00 -9.491699999999999582e-01 1.959400000000000031e-02 -1.529417000000000026e+00 9.504610000000000003e-01 2.082099999999999923e-02 -1.531587000000000032e+00 9.492439999999999767e-01 -2.089500000000000038e-02 1.530663000000000107e+00 -9.491540000000000532e-01 2.009899999999999881e-02 -1.529708999999999985e+00 9.499309999999999699e-01 2.024400000000000158e-02 -1.530766999999999989e+00 9.496869999999999479e-01 -2.089299999999999838e-02 1.530852000000000102e+00 -9.493789999999999729e-01 2.057200000000000001e-02 -1.530400999999999900e+00 9.498839999999999506e-01 2.116099999999999925e-02 -1.531484000000000067e+00 9.487160000000000037e-01 -2.078899999999999845e-02 1.531300000000000106e+00 -9.491829999999999989e-01 -2.097200000000000106e-02 1.530731999999999982e+00 -9.490939999999999932e-01 -2.073499999999999996e-02 1.531184000000000101e+00 -9.490030000000000410e-01 -2.036400000000000016e-02 1.530848999999999904e+00 -9.490349999999999620e-01 2.001199999999999854e-02 -1.529705000000000092e+00 9.501880000000000326e-01 2.053999999999999923e-02 -1.532129000000000074e+00 9.493819999999999482e-01 2.108399999999999858e-02 -1.530180000000000096e+00 9.501359999999999806e-01 2.090200000000000044e-02 -1.531276999999999999e+00 9.492709999999999759e-01 1.961399999999999949e-02 -1.530296000000000101e+00 9.501560000000000006e-01 2.164599999999999858e-02 -1.531541000000000041e+00 9.495190000000000019e-01 1.985500000000000112e-02 -1.530223000000000111e+00 9.495970000000000244e-01 2.015600000000000031e-02 -1.531023000000000023e+00 9.492129999999999734e-01 -2.170400000000000107e-02 1.531166999999999945e+00 -9.496539999999999981e-01 2.047099999999999961e-02 -1.529514000000000040e+00 9.500600000000000156e-01 2.029699999999999907e-02 -1.531431999999999904e+00 9.490870000000000140e-01 -2.086199999999999860e-02 1.531450999999999896e+00 -9.492220000000000102e-01 1.959699999999999984e-02 -1.529717999999999911e+00 9.499919999999999476e-01 2.099900000000000030e-02 -1.530788999999999955e+00 9.493179999999999952e-01 -2.068400000000000100e-02 1.531379999999999963e+00 -9.494029999999999969e-01 -2.196800000000000141e-02 1.533355999999999941e+00 -9.474219999999999864e-01 -2.174099999999999991e-02 1.533597000000000099e+00 -9.474529999999999896e-01 -2.163599999999999898e-02 1.533220999999999945e+00 -9.469889999999999697e-01 1.965400000000000133e-02 -1.529597000000000095e+00 9.504949999999999788e-01 -2.071699999999999930e-02 1.530551999999999913e+00 -9.488689999999999625e-01 1.991800000000000168e-02 -1.529679999999999929e+00 9.500089999999999923e-01 -2.073499999999999996e-02 1.530583999999999945e+00 -9.494219999999999882e-01 2.017700000000000049e-02 -1.530197999999999947e+00 9.501089999999999813e-01 -2.086000000000000007e-02 1.530828000000000078e+00 -9.492749999999999799e-01 -2.213000000000000037e-02 1.533268000000000075e+00 -9.477609999999999646e-01 -2.119800000000000156e-02 1.532883999999999913e+00 -9.477210000000000356e-01 -2.222299999999999970e-02 1.533168000000000086e+00 -9.474869999999999681e-01 -2.134399999999999839e-02 1.530726999999999949e+00 -9.490410000000000235e-01 -2.094000000000000028e-02 1.530860000000000110e+00 -9.489880000000000537e-01 -2.032799999999999885e-02 1.530391000000000057e+00 -9.490910000000000180e-01 2.042400000000000118e-02 -1.530048999999999992e+00 9.500340000000000451e-01 2.087200000000000166e-02 -1.529725999999999919e+00 9.507910000000000528e-01 1.939400000000000152e-02 -1.529762000000000066e+00 9.507229999999999848e-01 -2.181500000000000106e-02 1.533601999999999910e+00 -9.478490000000000526e-01 -2.200999999999999832e-02 1.533498000000000028e+00 -9.479490000000000416e-01 -2.263400000000000134e-02 1.533547999999999911e+00 -9.480680000000000218e-01 1.982799999999999840e-02 -1.530073999999999934e+00 9.499450000000000394e-01 -2.132399999999999921e-02 1.530100999999999933e+00 -9.503249999999999753e-01 2.019599999999999868e-02 -1.529301999999999939e+00 9.503749999999999698e-01 -2.102499999999999855e-02 1.530888000000000027e+00 -9.498029999999999529e-01 1.922499999999999903e-02 -1.529303999999999997e+00 9.503399999999999626e-01 -2.033599999999999991e-02 1.530764000000000014e+00 -9.497769999999999824e-01 1.984800000000000106e-02 -1.528944999999999999e+00 9.510779999999999790e-01 2.011999999999999900e-02 -1.528990999999999989e+00 9.505930000000000213e-01 2.005200000000000038e-02 -1.529484999999999983e+00 9.507090000000000263e-01 2.077000000000000027e-02 -1.531873000000000040e+00 9.493660000000000432e-01 -2.166300000000000170e-02 1.533039000000000041e+00 -9.481549999999999701e-01 2.044199999999999837e-02 -1.531260000000000066e+00 9.499210000000000154e-01 -2.149099999999999969e-02 1.533176000000000094e+00 -9.482249999999999845e-01 2.070100000000000065e-02 -1.531193000000000026e+00 9.496149999999999869e-01 -2.152899999999999953e-02 1.532674000000000092e+00 -9.480790000000000051e-01 -2.202300000000000091e-02 1.533859000000000083e+00 -9.472439999999999749e-01 -2.166600000000000123e-02 1.534089999999999954e+00 -9.469229999999999592e-01 -2.253700000000000148e-02 1.534219999999999917e+00 -9.466350000000000042e-01 2.057300000000000101e-02 -1.530296000000000101e+00 9.491509999999999669e-01 2.112199999999999842e-02 -1.530323000000000100e+00 9.495949999999999669e-01 1.997300000000000117e-02 -1.530788000000000038e+00 9.494590000000000529e-01 2.052299999999999958e-02 -1.531655999999999906e+00 9.496139999999999581e-01 2.115900000000000072e-02 -1.531484999999999985e+00 9.491300000000000292e-01 2.157799999999999996e-02 -1.531443000000000110e+00 9.495930000000000204e-01 1.938700000000000145e-02 -1.529495999999999967e+00 9.499339999999999451e-01 2.051899999999999905e-02 -1.528888000000000025e+00 9.502899999999999681e-01 1.932499999999999843e-02 -1.528864999999999919e+00 9.503530000000000033e-01 1.966700000000000045e-02 -1.530931999999999960e+00 9.497499999999999831e-01 -2.188100000000000114e-02 1.533342999999999900e+00 -9.481270000000000531e-01 2.020599999999999827e-02 -1.531361999999999890e+00 9.496229999999999949e-01 -2.158900000000000055e-02 1.533199999999999896e+00 -9.483150000000000190e-01 2.059199999999999919e-02 -1.530555000000000110e+00 9.499239999999999906e-01 -2.284900000000000125e-02 1.533290000000000042e+00 -9.483650000000000135e-01 2.369999999999999874e-04 -1.881000000000000076e-03 2.063999999999999863e-03 3.708292999999999839e+00 -3.812053000000000136e+00 -4.671509999999999607e+00 3.706936999999999927e+00 -3.809575999999999851e+00 -4.671105999999999980e+00 1.049000000000000019e-03 -2.485999999999999929e-03 2.268000000000000051e-03 3.707670999999999939e+00 -3.812467999999999968e+00 -4.670982999999999663e+00 3.707037000000000138e+00 -3.810229000000000088e+00 -4.671054999999999957e+00 5.230000000000000274e-04 -1.561000000000000104e-03 2.154999999999999798e-03 3.707396000000000136e+00 -3.812481000000000009e+00 -4.670951999999999771e+00 -3.707393000000000161e+00 3.809766999999999904e+00 4.671291000000000082e+00 -3.705766000000000115e+00 3.810608000000000217e+00 4.667575000000000252e+00 -3.707628999999999841e+00 3.809607000000000188e+00 4.670745000000000147e+00 -3.707301999999999875e+00 3.810925000000000118e+00 4.668021999999999672e+00 -3.706513000000000169e+00 3.809420999999999946e+00 4.670494999999999841e+00 -3.707638999999999907e+00 3.811004000000000058e+00 4.667768999999999835e+00 8.710000000000000294e-04 5.500000000000000196e-05 6.279999999999999775e-04 3.707802000000000042e+00 -3.811014000000000124e+00 -4.671331000000000344e+00 3.707479999999999887e+00 -3.808823999999999987e+00 -4.669325999999999866e+00 3.750000000000000078e-04 1.430000000000000064e-04 5.069999999999999637e-04 3.707713000000000036e+00 -3.811106000000000105e+00 -4.671551000000000009e+00 3.707056000000000129e+00 -3.809381000000000128e+00 -4.669325999999999866e+00 2.039999999999999984e-04 5.519999999999999733e-04 4.589999999999999896e-04 3.707918999999999965e+00 -3.811258000000000035e+00 -4.670994999999999564e+00 3.706979000000000024e+00 -3.808974000000000082e+00 -4.669601000000000113e+00 -3.707145000000000135e+00 3.811024999999999885e+00 4.669260000000000410e+00 -3.707250000000000156e+00 3.811812999999999896e+00 4.667564999999999742e+00 -3.707216999999999985e+00 3.811261000000000010e+00 4.669590000000000352e+00 -3.707526000000000099e+00 3.811549999999999994e+00 4.667504000000000097e+00 -3.707612000000000130e+00 3.811761999999999873e+00 4.669611999999999874e+00 -3.707082999999999906e+00 3.811510999999999871e+00 4.667385000000000339e+00 3.708142000000000049e+00 -3.812155000000000182e+00 -4.673161999999999594e+00 3.707602000000000064e+00 -3.810675999999999952e+00 -4.668929000000000329e+00 3.707491000000000092e+00 -3.811571999999999960e+00 -4.672609999999999708e+00 3.707807999999999993e+00 -3.811872999999999845e+00 -4.672691999999999624e+00 7.179999999999999967e-04 -2.031999999999999952e-03 8.080000000000000160e-04 -3.707917000000000129e+00 3.810051000000000077e+00 4.669647000000000325e+00 -3.706766000000000005e+00 3.810376000000000207e+00 4.668521000000000143e+00 -7.739999999999999485e-04 -1.412999999999999977e-03 1.420999999999999954e-03 -3.707209000000000199e+00 3.810042000000000151e+00 4.669520000000000337e+00 -3.706643000000000132e+00 3.809835999999999778e+00 4.668324000000000140e+00 4.459999999999999989e-04 -1.874000000000000015e-03 1.431999999999999896e-03 -3.707126000000000143e+00 3.810144000000000197e+00 4.669291000000000302e+00 -3.707292999999999950e+00 3.809845999999999844e+00 4.668124999999999858e+00 1.623000000000000094e-03 -2.240999999999999936e-03 -4.600000000000000004e-05 1.095000000000000053e-03 -2.229000000000000078e-03 8.500000000000000611e-05 1.160999999999999923e-03 -2.394999999999999993e-03 3.939999999999999817e-04 2.059999999999999928e-04 3.539999999999999853e-04 1.399999999999999986e-03 3.707066000000000194e+00 -3.810853999999999964e+00 -4.669058999999999848e+00 -1.299999999999999920e-05 -1.369999999999999961e-04 1.229999999999999974e-03 3.707228999999999886e+00 -3.810973000000000166e+00 -4.669248999999999761e+00 7.659999999999999708e-04 1.800000000000000113e-04 1.361999999999999929e-03 3.707517000000000174e+00 -3.810678999999999927e+00 -4.669548999999999950e+00 -3.706564999999999888e+00 3.811148000000000202e+00 4.668751000000000317e+00 -3.707758000000000109e+00 3.811507000000000200e+00 4.669278000000000262e+00 -3.707654999999999923e+00 3.811052000000000106e+00 4.668288999999999689e+00 1.191000000000000001e-03 -2.785999999999999848e-03 -2.959999999999999849e-04 1.258999999999999920e-03 -2.145000000000000205e-03 2.049999999999999956e-04 1.373000000000000088e-03 -2.226999999999999813e-03 -1.060000000000000016e-04 -1.140000000000000063e-04 -5.770000000000000389e-04 1.025000000000000086e-03 3.707456999999999780e+00 -3.810710999999999959e+00 -4.668885999999999648e+00 7.820000000000000345e-04 -1.248999999999999893e-03 6.489999999999999459e-04 3.707231999999999861e+00 -3.811199999999999921e+00 -4.668846000000000274e+00 6.499999999999999431e-05 -6.470000000000000057e-04 7.280000000000000230e-04 3.707342000000000137e+00 -3.810869999999999980e+00 -4.668762000000000079e+00 -3.707418999999999798e+00 3.811465000000000103e+00 4.667142000000000124e+00 -3.706989999999999785e+00 3.810776000000000163e+00 4.666542999999999886e+00 -3.706678000000000139e+00 3.810807000000000055e+00 4.666923999999999850e+00 3.707300000000000040e+00 -3.810636000000000134e+00 -4.670911000000000257e+00 3.706604000000000010e+00 -3.810734000000000066e+00 -4.670670999999999573e+00 3.707737999999999978e+00 -3.810862000000000194e+00 -4.671262999999999721e+00 1.412000000000000061e-03 -2.775000000000000123e-03 -1.943999999999999981e-03 1.817000000000000039e-03 -3.379000000000000059e-03 -1.899000000000000080e-03 5.699999999999999772e-04 -2.876999999999999783e-03 -1.289999999999999914e-03 7.259999999999999743e-04 -1.900000000000000105e-05 1.840000000000000001e-04 -3.707142999999999855e+00 3.811643000000000114e+00 4.668708999999999776e+00 -5.220000000000000031e-04 4.420000000000000101e-04 8.440000000000000236e-04 -3.707202999999999804e+00 3.811385000000000023e+00 4.668828000000000422e+00 4.020000000000000136e-04 2.410000000000000033e-04 7.150000000000000322e-04 -3.707783000000000051e+00 3.811622999999999983e+00 4.669035000000000046e+00 3.708002000000000020e+00 -3.810763000000000122e+00 -4.671924999999999883e+00 1.420000000000000038e-03 -2.442000000000000160e-03 -2.539999999999999940e-04 3.707225000000000215e+00 -3.811115000000000030e+00 -4.671332999999999736e+00 1.132999999999999893e-03 -2.657000000000000074e-03 -4.609999999999999840e-04 3.708061999999999969e+00 -3.811370999999999842e+00 -4.671170000000000044e+00 1.247999999999999977e-03 -2.909999999999999826e-03 -3.319999999999999926e-04 3.706928000000000001e+00 -3.810951000000000199e+00 -4.669795999999999836e+00 3.707117999999999913e+00 -3.811120999999999981e+00 -4.670157999999999809e+00 3.707212000000000174e+00 -3.810544999999999849e+00 -4.670219999999999594e+00 -3.707539999999999836e+00 3.811062000000000172e+00 4.670098999999999556e+00 -3.707645999999999997e+00 3.810773999999999884e+00 4.669521999999999728e+00 -3.707135000000000069e+00 3.811106999999999800e+00 4.669891999999999932e+00 -3.706284000000000134e+00 3.809537000000000173e+00 4.667627000000000415e+00 -3.707415000000000127e+00 3.809623000000000204e+00 4.667824999999999669e+00 -3.707578999999999958e+00 3.809457999999999789e+00 4.667411000000000421e+00 3.707932000000000006e+00 -3.811449000000000087e+00 -4.671885999999999761e+00 1.183999999999999940e-03 -2.557999999999999944e-03 -7.749999999999999728e-04 3.707641000000000187e+00 -3.810944999999999805e+00 -4.671189000000000036e+00 1.564999999999999985e-03 -2.782000000000000185e-03 -3.499999999999999964e-04 3.707899999999999974e+00 -3.811567000000000149e+00 -4.671127000000000251e+00 1.260000000000000052e-03 -2.686000000000000019e-03 -1.082000000000000062e-03 3.707209000000000199e+00 -3.811326999999999909e+00 -4.669513000000000247e+00 3.707139000000000184e+00 -3.811765999999999988e+00 -4.669661999999999757e+00 3.707930999999999866e+00 -3.811745999999999857e+00 -4.669643999999999906e+00 -3.707835999999999910e+00 3.811439000000000021e+00 4.670628999999999920e+00 -3.707314999999999916e+00 3.811154999999999848e+00 4.670182999999999751e+00 -3.707383999999999791e+00 3.811479999999999979e+00 4.669904999999999973e+00 -3.706754999999999800e+00 3.809969999999999857e+00 4.668855999999999895e+00 -3.706586000000000158e+00 3.809217999999999993e+00 4.668553000000000175e+00 -3.707335000000000047e+00 3.809820000000000206e+00 4.669144000000000183e+00 3.707968999999999848e+00 -3.811288999999999927e+00 -4.672367000000000381e+00 3.707155999999999896e+00 -3.810954000000000175e+00 -4.671916000000000402e+00 3.707971999999999824e+00 -3.811186999999999880e+00 -4.672279999999999767e+00 3.707197999999999993e+00 -3.810827000000000186e+00 -4.669763999999999804e+00 3.706388000000000016e+00 -3.810881999999999881e+00 -4.669717000000000340e+00 3.706999000000000155e+00 -3.810865999999999865e+00 -4.670302000000000398e+00 -3.707136999999999905e+00 3.811815999999999871e+00 4.670262000000000135e+00 7.960000000000000495e-04 -1.131999999999999977e-03 -1.569999999999999998e-03 -3.708292000000000144e+00 3.811738000000000071e+00 4.670931999999999640e+00 1.650999999999999907e-03 -1.400999999999999902e-03 -1.850000000000000082e-03 -3.707460000000000200e+00 3.812031999999999865e+00 4.670586000000000126e+00 8.329999999999999731e-04 -9.020000000000000240e-04 -1.381999999999999982e-03 -3.707037000000000138e+00 3.810535999999999923e+00 4.668709999999999916e+00 -3.706582000000000043e+00 3.810039999999999871e+00 4.668458000000000219e+00 -3.707510000000000083e+00 3.810395000000000199e+00 4.668909000000000198e+00 8.649999999999999920e-04 -2.488999999999999893e-03 1.242999999999999964e-03 3.708232999999999890e+00 -3.810785999999999785e+00 -4.672273999999999816e+00 2.086999999999999880e-03 -9.640000000000000131e-04 -2.331000000000000173e-03 -3.600000000000000091e-05 -2.657000000000000074e-03 1.471000000000000085e-03 3.707422000000000217e+00 -3.810881999999999881e+00 -4.671945000000000014e+00 7.029999999999999574e-04 -4.589999999999999896e-04 -2.240999999999999936e-03 7.759999999999999971e-04 -2.686000000000000019e-03 1.350999999999999987e-03 3.707491000000000092e+00 -3.811198000000000086e+00 -4.672373000000000332e+00 1.002000000000000069e-03 -1.472000000000000001e-03 -2.246000000000000166e-03 3.706951999999999803e+00 -3.809826999999999853e+00 -4.670795000000000030e+00 -3.707821000000000033e+00 3.811812000000000200e+00 4.669259000000000270e+00 -3.708127999999999869e+00 3.811852000000000018e+00 4.669281999999999933e+00 -3.707129999999999814e+00 3.811757000000000062e+00 4.669051999999999758e+00 3.589999999999999984e-04 -2.088000000000000012e-03 3.073999999999999910e-03 3.708407999999999927e+00 -3.812288999999999817e+00 -4.671344999999999636e+00 1.075999999999999917e-03 -7.320000000000000118e-04 -1.121000000000000035e-03 2.770000000000000110e-04 -2.138000000000000143e-03 3.180000000000000101e-03 3.708037000000000027e+00 -3.811974000000000196e+00 -4.671310000000000073e+00 1.528000000000000061e-03 -1.026000000000000002e-03 -8.819999999999999715e-04 1.179999999999999951e-04 -1.843999999999999936e-03 3.348999999999999980e-03 3.708410999999999902e+00 -3.812459000000000042e+00 -4.670766999999999669e+00 1.186999999999999904e-03 -9.309999999999999699e-04 -8.989999999999999511e-04 -3.707688000000000095e+00 3.809944000000000219e+00 4.670537000000000383e+00 -3.707796999999999787e+00 3.809969000000000161e+00 4.670422000000000295e+00 -3.707254999999999967e+00 3.810322999999999904e+00 4.670505000000000351e+00 3.708032999999999912e+00 -3.811910000000000132e+00 -4.671643999999999686e+00 3.707847000000000115e+00 -3.811748999999999832e+00 -4.671477000000000324e+00 3.707807999999999993e+00 -3.812034000000000145e+00 -4.671528000000000347e+00 3.707394999999999996e+00 -3.810452000000000172e+00 -4.668819000000000052e+00 3.706348000000000198e+00 -3.810013000000000094e+00 -4.668228000000000044e+00 4.659999999999999971e-04 -1.289999999999999914e-03 1.332000000000000068e-03 -3.707574999999999843e+00 3.811357999999999802e+00 4.669834999999999958e+00 5.060000000000000478e-04 -1.126000000000000048e-03 -8.000000000000000654e-05 -1.920000000000000049e-04 -1.371999999999999956e-03 1.404999999999999999e-03 -3.707288000000000139e+00 3.811471000000000053e+00 4.670086999999999655e+00 1.605000000000000090e-03 -2.000000000000000042e-03 -5.820000000000000520e-04 5.839999999999999922e-04 -9.730000000000000151e-04 1.974000000000000060e-03 -3.706945000000000157e+00 3.811331000000000024e+00 4.669740000000000002e+00 5.050000000000000235e-04 -1.422000000000000087e-03 -8.600000000000000331e-05