2.379739999999999966e+00 3.020090000000000163e+00 5.046929999999999694e+00 1.001736999999999966e+01 3.688730000000000064e+00 2.398449999999999971e+00 1.907520000000000104e+00 1.062580000000000080e+00 2.398499999999999854e+00 5.511180000000000412e+00 3.020099999999999785e+00 5.046929999999999694e+00 3.754469999999999974e+00 3.688740000000000130e+00 2.398449999999999971e+00 5.038990000000000080e+00 1.062580000000000080e+00 2.398499999999999854e+00 8.642640000000000100e+00 3.020080000000000098e+00 5.046920000000000073e+00 6.885930000000000106e+00 3.688730000000000064e+00 2.398449999999999971e+00 8.170439999999999259e+00 1.062580000000000080e+00 2.398499999999999854e+00 1.095239999999999991e+00 5.646279999999999966e+00 5.046920000000000073e+00 2.942210000000000214e+00 8.272429999999999950e+00 5.046929999999999694e+00 2.470000000000000195e+00 6.314910000000000245e+00 2.398499999999999854e+00 4.226700000000000124e+00 5.646279999999999966e+00 5.046929999999999694e+00 6.073660000000000281e+00 8.272439999999999571e+00 5.046929999999999694e+00 5.601440000000000197e+00 6.314919999999999867e+00 2.398489999999999789e+00 7.358139999999999681e+00 5.646279999999999966e+00 5.046929999999999694e+00 9.205120000000000857e+00 8.272439999999999571e+00 5.046920000000000073e+00 8.732910000000000394e+00 6.314910000000000245e+00 2.398499999999999854e+00 1.080100999999999978e+01 4.272199999999999775e+00 9.873179999999999623e+00 2.691170000000000062e+00 1.646050000000000013e+00 9.873219999999999885e+00 4.538120000000000154e+00 4.272199999999999775e+00 9.873179999999999623e+00 5.822619999999999685e+00 1.646050000000000013e+00 9.873219999999999885e+00 7.669559999999999711e+00 4.272199999999999775e+00 9.873179999999999623e+00 8.954079999999999373e+00 1.646050000000000013e+00 9.873219999999999885e+00 3.253629999999999800e+00 6.898380000000000400e+00 9.873219999999999885e+00 6.385080000000000311e+00 6.898380000000000400e+00 9.873219999999999885e+00 9.516540000000000887e+00 6.898390000000000022e+00 9.873219999999999885e+00 3.163370000000000015e+00 3.603559999999999874e+00 1.252166000000000068e+01 6.294830000000000148e+00 3.603569999999999940e+00 1.252166000000000068e+01 9.426289999999999836e+00 3.603569999999999940e+00 1.252166000000000068e+01 1.878889999999999949e+00 6.229759999999999742e+00 1.252166000000000068e+01 3.725849999999999884e+00 8.855900000000000105e+00 1.252164999999999928e+01 5.010349999999999859e+00 6.229739999999999611e+00 1.252164999999999928e+01 6.857310000000000016e+00 8.855900000000000105e+00 1.252164999999999928e+01 8.141790000000000305e+00 6.229739999999999611e+00 1.252164999999999928e+01 9.988759999999999195e+00 8.855909999999999727e+00 1.252166000000000068e+01 3.947020000000000195e+00 4.187050000000000161e+00 1.999636999999999887e+01 1.158465999999999951e+01 4.855669999999999931e+00 1.734790999999999883e+01 3.474800000000000111e+00 2.229519999999999946e+00 1.734795000000000087e+01 7.078470000000000262e+00 4.187039999999999651e+00 1.999637999999999849e+01 5.321740000000000137e+00 4.855680000000000440e+00 1.734789999999999921e+01 6.606250000000000178e+00 2.229519999999999946e+00 1.734795000000000087e+01 1.020992000000000033e+01 4.187039999999999651e+00 1.999636999999999887e+01 8.453210000000000335e+00 4.855680000000000440e+00 1.734789999999999921e+01 9.737709999999999866e+00 2.229519999999999946e+00 1.734794000000000125e+01 2.662520000000000220e+00 6.813220000000000276e+00 1.999636999999999887e+01 4.509490000000000443e+00 9.439379999999999882e+00 1.999636999999999887e+01 4.037270000000000358e+00 7.481860000000000177e+00 1.734795000000000087e+01 5.793989999999999974e+00 6.813209999999999766e+00 1.999637999999999849e+01 7.640950000000000131e+00 9.439389999999999503e+00 1.999637999999999849e+01 7.168730000000000047e+00 7.481860000000000177e+00 1.734794000000000125e+01 8.925420000000000798e+00 6.813209999999999766e+00 1.999639000000000166e+01 1.077238999999999969e+01 9.439379999999999882e+00 1.999639000000000166e+01 1.030019000000000062e+01 7.481869999999999798e+00 1.734794000000000125e+01 2.220190000000000108e+00 1.615096000000000132e+01 5.046920000000000073e+00 5.351630000000000109e+00 1.615096000000000132e+01 5.046929999999999694e+00 8.483079999999999288e+00 1.615096000000000132e+01 5.046920000000000073e+00 1.057985000000000042e+01 8.941079999999999472e+00 2.398449999999999971e+00 4.316950000000000287e+00 8.941060000000000230e+00 2.398439999999999905e+00 7.448380000000000223e+00 8.941079999999999472e+00 2.398449999999999971e+00 1.657699999999999951e+00 1.089860000000000007e+01 5.046940000000000204e+00 3.504669999999999952e+00 1.352477999999999980e+01 5.046920000000000073e+00 1.114230000000000054e+01 1.419341999999999970e+01 2.398449999999999971e+00 3.032459999999999933e+00 1.156725999999999921e+01 2.398489999999999789e+00 4.789159999999999862e+00 1.089861999999999931e+01 5.046929999999999694e+00 6.636129999999999640e+00 1.352477000000000018e+01 5.046929999999999694e+00 4.879400000000000404e+00 1.419340000000000046e+01 2.398460000000000036e+00 6.163909999999999556e+00 1.156725999999999921e+01 2.398489999999999789e+00 7.920620000000000438e+00 1.089861999999999931e+01 5.046929999999999694e+00 9.767580000000000595e+00 1.352477000000000018e+01 5.046909999999999563e+00 8.010859999999999204e+00 1.419341999999999970e+01 2.398449999999999971e+00 9.295379999999999754e+00 1.156724999999999959e+01 2.398499999999999854e+00 1.136349000000000053e+01 9.524540000000000006e+00 9.873189999999999245e+00 5.100579999999999892e+00 9.524549999999999628e+00 9.873179999999999623e+00 8.232039999999999580e+00 9.524549999999999628e+00 9.873189999999999245e+00 1.192594000000000065e+01 1.477688999999999986e+01 9.873179999999999623e+00 3.816100000000000048e+00 1.215072999999999936e+01 9.873229999999999507e+00 5.663059999999999761e+00 1.477688000000000024e+01 9.873179999999999623e+00 6.947549999999999670e+00 1.215072999999999936e+01 9.873219999999999885e+00 8.794489999999999696e+00 1.477688000000000024e+01 9.873189999999999245e+00 1.007901000000000025e+01 1.215072999999999936e+01 9.873219999999999885e+00 3.003820000000000157e+00 1.673442999999999969e+01 1.252166000000000068e+01 6.135279999999999845e+00 1.673442999999999969e+01 1.252166000000000068e+01 9.266730000000000800e+00 1.673442000000000007e+01 1.252166000000000068e+01 2.441359999999999975e+00 1.148208999999999946e+01 1.252164999999999928e+01 4.288319999999999688e+00 1.410824999999999996e+01 1.252164999999999928e+01 5.572809999999999597e+00 1.148207999999999984e+01 1.252164999999999928e+01 7.419769999999999754e+00 1.410824999999999996e+01 1.252166000000000068e+01 8.704259999999999664e+00 1.148208999999999946e+01 1.252166000000000068e+01 1.055123000000000033e+01 1.410825999999999958e+01 1.252164999999999928e+01 3.787459999999999827e+00 1.731790000000000163e+01 1.999637999999999849e+01 6.918910000000000338e+00 1.731788999999999845e+01 1.999639000000000166e+01 1.005036999999999914e+01 1.731790000000000163e+01 1.999637999999999849e+01 1.214713000000000065e+01 1.010801999999999978e+01 1.734789999999999921e+01 5.884220000000000006e+00 1.010801000000000016e+01 1.734789999999999921e+01 9.015679999999999694e+00 1.010801999999999978e+01 1.734790999999999883e+01 3.225000000000000089e+00 1.206555000000000000e+01 1.999637999999999849e+01 5.071950000000000180e+00 1.469172000000000011e+01 1.999636999999999887e+01 1.270959000000000039e+01 1.536036999999999964e+01 1.734790999999999883e+01 4.599739999999999718e+00 1.273419999999999952e+01 1.734794000000000125e+01 6.356449999999999712e+00 1.206555999999999962e+01 1.999636999999999887e+01 8.203409999999999869e+00 1.469172999999999973e+01 1.999637999999999849e+01 6.446679999999999744e+00 1.536035000000000039e+01 1.734790999999999883e+01 7.731200000000000294e+00 1.273419999999999952e+01 1.734794000000000125e+01 9.487899999999999778e+00 1.206556999999999924e+01 1.999639000000000166e+01 1.133487000000000045e+01 1.469172999999999973e+01 1.999637999999999849e+01 9.578129999999999811e+00 1.536035000000000039e+01 1.734790999999999883e+01 1.086264000000000074e+01 1.273418999999999990e+01 1.734794000000000125e+01 5.778499999999999748e-01 2.041329999999999867e+00 3.722679999999999989e+00 1.040727000000000046e+01 3.977590000000000181e+00 6.138580000000000148e+00 1.989889999999999937e+00 2.731230000000000047e+00 1.306980000000000031e+00 1.429300000000000015e-01 1.050399999999999945e-01 1.306969999999999965e+00 2.424850000000000172e+00 4.667510000000000048e+00 3.722760000000000069e+00 2.297419999999999796e+00 1.351450000000000040e+00 6.138650000000000162e+00 3.709299999999999820e+00 2.041329999999999867e+00 3.722669999999999924e+00 4.144359999999999822e+00 3.977590000000000181e+00 6.138569999999999638e+00 5.121330000000000382e+00 2.731240000000000112e+00 1.306990000000000096e+00 3.274379999999999846e+00 1.050299999999999984e-01 1.306980000000000031e+00 5.556300000000000239e+00 4.667510000000000048e+00 3.722770000000000135e+00 5.428869999999999862e+00 1.351439999999999975e+00 6.138630000000000031e+00 6.840760000000000396e+00 2.041339999999999932e+00 3.722669999999999924e+00 7.275809999999999889e+00 3.977599999999999802e+00 6.138569999999999638e+00 8.252800000000000580e+00 2.731230000000000047e+00 1.306980000000000031e+00 6.405840000000000423e+00 1.050399999999999945e-01 1.306980000000000031e+00 8.687739999999999796e+00 4.667519999999999669e+00 3.722770000000000135e+00 8.560320000000000817e+00 1.351439999999999975e+00 6.138650000000000162e+00 1.140320000000000000e+00 7.293680000000000163e+00 3.722679999999999989e+00 7.054000000000000270e-01 5.357370000000000410e+00 1.306980000000000031e+00 2.859879999999999978e+00 6.603790000000000049e+00 6.138639999999999652e+00 4.271779999999999688e+00 7.293689999999999785e+00 3.722669999999999924e+00 3.836860000000000159e+00 5.357380000000000031e+00 1.306969999999999965e+00 5.991319999999999979e+00 6.603799999999999670e+00 6.138639999999999652e+00 7.403229999999999755e+00 7.293680000000000163e+00 3.722669999999999924e+00 6.968309999999999782e+00 5.357370000000000410e+00 1.306969999999999965e+00 9.122780000000000555e+00 6.603790000000000049e+00 6.138630000000000031e+00 1.361499999999999932e+00 2.624800000000000022e+00 1.119740999999999964e+01 2.773519999999999985e+00 3.314709999999999823e+00 8.781719999999999970e+00 9.265700000000000047e-01 6.885000000000000009e-01 8.781700000000000728e+00 3.208480000000000221e+00 5.250989999999999824e+00 1.119749000000000017e+01 4.492950000000000443e+00 2.624820000000000153e+00 1.119740000000000002e+01 5.904989999999999739e+00 3.314700000000000202e+00 8.781710000000000349e+00 4.058029999999999582e+00 6.885000000000000009e-01 8.781689999999999330e+00 6.339929999999999843e+00 5.250989999999999824e+00 1.119749000000000017e+01 7.624399999999999622e+00 2.624800000000000022e+00 1.119740000000000002e+01 9.036440000000000694e+00 3.314709999999999823e+00 8.781710000000000349e+00 7.189490000000000158e+00 6.885000000000000009e-01 8.781700000000000728e+00 9.471379999999999910e+00 5.250980000000000203e+00 1.119748000000000054e+01 1.923969999999999958e+00 7.877159999999999940e+00 1.119740000000000002e+01 1.489039999999999919e+00 5.940839999999999677e+00 8.781700000000000728e+00 5.055430000000000312e+00 7.877150000000000318e+00 1.119740999999999964e+01 4.620490000000000208e+00 5.940839999999999677e+00 8.781700000000000728e+00 8.186859999999999360e+00 7.877150000000000318e+00 1.119740000000000002e+01 7.751960000000000406e+00 5.940839999999999677e+00 8.781710000000000349e+00 1.119089999999999918e+01 4.561069999999999958e+00 1.361328999999999922e+01 3.081049999999999844e+00 1.934909999999999908e+00 1.361336999999999975e+01 4.928009999999999557e+00 4.561069999999999958e+00 1.361330000000000062e+01 6.212500000000000355e+00 1.934930000000000039e+00 1.361336999999999975e+01 8.059440000000000381e+00 4.561079999999999579e+00 1.361330000000000062e+01 9.343959999999999155e+00 1.934909999999999908e+00 1.361336999999999975e+01 3.643510000000000026e+00 7.187269999999999825e+00 1.361336000000000013e+01 6.774960000000000093e+00 7.187249999999999694e+00 1.361336999999999975e+01 9.906430000000000291e+00 7.187260000000000204e+00 1.361336999999999975e+01 2.145140000000000047e+00 3.208279999999999799e+00 1.867213999999999885e+01 1.197453999999999930e+01 5.144549999999999734e+00 2.108802000000000021e+01 3.557170000000000165e+00 3.898179999999999978e+00 1.625644000000000133e+01 1.710220000000000073e+00 1.271980000000000111e+00 1.625644000000000133e+01 3.992109999999999825e+00 5.834469999999999601e+00 1.867221999999999937e+01 3.864700000000000024e+00 2.518390000000000128e+00 2.108809000000000111e+01 5.276589999999999669e+00 3.208279999999999799e+00 1.867212999999999923e+01 5.711640000000000050e+00 5.144540000000000113e+00 2.108802999999999983e+01 6.688620000000000232e+00 3.898179999999999978e+00 1.625644000000000133e+01 4.841669999999999696e+00 1.271980000000000111e+00 1.625643000000000171e+01 7.123579999999999579e+00 5.834459999999999980e+00 1.867220999999999975e+01 6.996139999999999581e+00 2.518400000000000194e+00 2.108809000000000111e+01 8.408049999999999358e+00 3.208279999999999799e+00 1.867211999999999961e+01 8.843099999999999739e+00 5.144549999999999734e+00 2.108802999999999983e+01 9.820059999999999789e+00 3.898179999999999978e+00 1.625644000000000133e+01 7.973119999999999763e+00 1.271980000000000111e+00 1.625644000000000133e+01 1.025503999999999927e+01 5.834459999999999980e+00 1.867220999999999975e+01 1.012758999999999965e+01 2.518400000000000194e+00 2.108810000000000073e+01 2.707609999999999850e+00 8.460630000000000095e+00 1.867212999999999923e+01 2.272679999999999811e+00 6.524329999999999963e+00 1.625644000000000133e+01 4.427170000000000272e+00 7.770730000000000359e+00 2.108809000000000111e+01 5.839059999999999917e+00 8.460630000000000095e+00 1.867212999999999923e+01 5.404139999999999944e+00 6.524320000000000341e+00 1.625641999999999854e+01 7.558620000000000339e+00 7.770730000000000359e+00 2.108810000000000073e+01 8.970520000000000493e+00 8.460630000000000095e+00 1.867212999999999923e+01 8.535589999999999122e+00 6.524309999999999832e+00 1.625644000000000133e+01 1.069007000000000041e+01 7.770730000000000359e+00 2.108809000000000111e+01 1.096973999999999982e+01 9.229939999999999145e+00 6.138560000000000016e+00 2.552350000000000119e+00 7.983579999999999899e+00 1.306980000000000031e+00 2.987309999999999910e+00 9.919850000000000279e+00 3.722760000000000069e+00 4.706830000000000069e+00 9.229929999999999524e+00 6.138569999999999638e+00 5.683810000000000251e+00 7.983579999999999899e+00 1.306980000000000031e+00 6.118769999999999598e+00 9.919850000000000279e+00 3.722770000000000135e+00 7.838280000000000136e+00 9.229950000000000543e+00 6.138560000000000016e+00 8.815260000000000318e+00 7.983579999999999899e+00 1.306990000000000096e+00 9.250209999999999155e+00 9.919859999999999900e+00 3.722760000000000069e+00 1.702800000000000091e+00 1.254602000000000039e+01 3.722679999999999989e+00 1.153220999999999918e+01 1.448226999999999975e+01 6.138569999999999638e+00 3.114829999999999988e+00 1.323591000000000051e+01 1.306999999999999940e+00 1.267870000000000053e+00 1.060970999999999975e+01 1.306969999999999965e+00 3.549780000000000157e+00 1.517219000000000051e+01 3.722760000000000069e+00 3.422349999999999781e+00 1.185613000000000028e+01 6.138630000000000031e+00 4.834240000000000315e+00 1.254602000000000039e+01 3.722679999999999989e+00 5.269300000000000317e+00 1.448227999999999938e+01 6.138569999999999638e+00 6.246269999999999989e+00 1.323591000000000051e+01 1.306990000000000096e+00 4.399329999999999963e+00 1.060970999999999975e+01 1.306980000000000031e+00 6.681219999999999715e+00 1.517220999999999975e+01 3.722750000000000004e+00 6.553810000000000358e+00 1.185613000000000028e+01 6.138630000000000031e+00 7.965700000000000003e+00 1.254601000000000077e+01 3.722679999999999989e+00 8.400760000000000005e+00 1.448227999999999938e+01 6.138560000000000016e+00 9.377729999999999677e+00 1.323592000000000013e+01 1.306990000000000096e+00 7.530789999999999651e+00 1.060970999999999975e+01 1.306980000000000031e+00 9.812680000000000291e+00 1.517220000000000013e+01 3.722770000000000135e+00 9.685249999999999915e+00 1.185613999999999990e+01 6.138639999999999652e+00 3.335989999999999789e+00 8.567050000000000054e+00 8.781710000000000349e+00 3.770950000000000024e+00 1.050333000000000006e+01 1.119749000000000017e+01 6.467450000000000365e+00 8.567050000000000054e+00 8.781710000000000349e+00 6.902389999999999581e+00 1.050333999999999968e+01 1.119749000000000017e+01 9.598900000000000432e+00 8.567040000000000433e+00 8.781719999999999970e+00 1.003386000000000067e+01 1.050333999999999968e+01 1.119749000000000017e+01 2.486429999999999918e+00 1.312949000000000055e+01 1.119740999999999964e+01 3.898460000000000036e+00 1.381939000000000028e+01 8.781710000000000349e+00 2.051509999999999945e+00 1.119317999999999991e+01 8.781700000000000728e+00 4.333420000000000272e+00 1.575567999999999991e+01 1.119749000000000017e+01 5.617890000000000050e+00 1.312949000000000055e+01 1.119740999999999964e+01 7.029919999999999725e+00 1.381939000000000028e+01 8.781719999999999970e+00 5.182959999999999567e+00 1.119317999999999991e+01 8.781710000000000349e+00 7.464870000000000339e+00 1.575567999999999991e+01 1.119748000000000054e+01 8.749330000000000496e+00 1.312949000000000055e+01 1.119740999999999964e+01 1.016136999999999979e+01 1.381939999999999991e+01 8.781710000000000349e+00 8.314420000000000144e+00 1.119318999999999953e+01 8.781700000000000728e+00 1.059633000000000003e+01 1.575567000000000029e+01 1.119749000000000017e+01 1.175337999999999994e+01 9.813420000000000698e+00 1.361330000000000062e+01 5.490479999999999805e+00 9.813409999999999300e+00 1.361328999999999922e+01 8.621930000000000760e+00 9.813420000000000698e+00 1.361328999999999922e+01 1.231583000000000006e+01 1.506575999999999915e+01 1.361328999999999922e+01 4.205980000000000274e+00 1.243960000000000043e+01 1.361336000000000013e+01 6.052940000000000431e+00 1.506575999999999915e+01 1.361330000000000062e+01 7.337449999999999584e+00 1.243961000000000006e+01 1.361336000000000013e+01 9.184400000000000119e+00 1.506574999999999953e+01 1.361331000000000024e+01 1.046889999999999965e+01 1.243959000000000081e+01 1.361336999999999975e+01 1.253701000000000043e+01 1.039689000000000085e+01 2.108802000000000021e+01 4.119640000000000413e+00 9.150520000000000209e+00 1.625644000000000133e+01 4.554579999999999629e+00 1.108680000000000021e+01 1.867220999999999975e+01 6.274110000000000298e+00 1.039687999999999946e+01 2.108802000000000021e+01 7.251089999999999591e+00 9.150529999999999831e+00 1.625645000000000095e+01 7.686049999999999827e+00 1.108680999999999983e+01 1.867221999999999937e+01 9.405549999999999855e+00 1.039689000000000085e+01 2.108802000000000021e+01 1.038254000000000055e+01 9.150529999999999831e+00 1.625644000000000133e+01 1.081750000000000078e+01 1.108680999999999983e+01 1.867220999999999975e+01 3.270070000000000032e+00 1.371296000000000070e+01 1.867212999999999923e+01 1.309948999999999941e+01 1.564922999999999931e+01 2.108802999999999983e+01 4.682100000000000151e+00 1.440286000000000044e+01 1.625644000000000133e+01 2.835150000000000059e+00 1.177665999999999968e+01 1.625643000000000171e+01 5.117060000000000386e+00 1.633915000000000006e+01 1.867220999999999975e+01 4.989630000000000010e+00 1.302308000000000021e+01 2.108810000000000073e+01 6.401519999999999655e+00 1.371297000000000033e+01 1.867213999999999885e+01 6.836590000000000167e+00 1.564921999999999969e+01 2.108802999999999983e+01 7.813550000000000217e+00 1.440286000000000044e+01 1.625644000000000133e+01 5.966610000000000191e+00 1.177665000000000006e+01 1.625643000000000171e+01 8.248509999999999565e+00 1.633915000000000006e+01 1.867221999999999937e+01 8.121079999999999188e+00 1.302308000000000021e+01 2.108809000000000111e+01 9.532980000000000231e+00 1.371296000000000070e+01 1.867213999999999885e+01 9.968030000000000612e+00 1.564922999999999931e+01 2.108802000000000021e+01 1.094500000000000028e+01 1.440287000000000006e+01 1.625645000000000095e+01 9.098050000000000637e+00 1.177665000000000006e+01 1.625641999999999854e+01 1.137997000000000014e+01 1.633914000000000044e+01 1.867221999999999937e+01 1.125253999999999976e+01 1.302307000000000059e+01 2.108808000000000149e+01