-2.791326892800000223e+03
-2.791302975520000018e+03
-2.791212683419999848e+03
-2.791057031389999793e+03
-2.790837615829999777e+03
-2.790556568869999865e+03
-2.790216489240000101e+03
-2.789820583079999778e+03
-2.789372424810000211e+03
-2.788876047849999850e+03
