1.941100000000000048e-01 7.159600000000000686e-02 -1.377359999999999973e-01 -1.954470000000000096e-01 -7.059100000000000097e-02 1.405609999999999915e-01 -1.954190000000000094e-01 -7.220400000000000429e-02 1.390919999999999934e-01 1.942989999999999995e-01 7.090200000000000669e-02 -1.382680000000000020e-01 -1.948600000000000054e-01 -7.043399999999999661e-02 1.401920000000000111e-01 -1.948459999999999914e-01 -7.183799999999999908e-02 1.386489999999999945e-01 1.949230000000000129e-01 7.138300000000000201e-02 -1.379569999999999963e-01 -1.957740000000000036e-01 -7.087599999999999456e-02 1.397559999999999913e-01 -1.943449999999999900e-01 -7.188300000000000245e-02 1.391060000000000074e-01 1.951640000000000041e-01 7.021900000000000364e-02 -1.381259999999999988e-01 1.940729999999999955e-01 7.019799999999999651e-02 -1.381630000000000080e-01 -1.951380000000000059e-01 -7.069400000000000683e-02 1.380919999999999925e-01 1.948920000000000097e-01 7.063500000000000334e-02 -1.378010000000000068e-01 1.943989999999999885e-01 7.101599999999999580e-02 -1.378139999999999921e-01 -1.943320000000000047e-01 -7.166300000000000447e-02 1.395299999999999874e-01 1.936110000000000053e-01 7.056400000000000172e-02 -1.374309999999999976e-01 1.943880000000000052e-01 7.055400000000000560e-02 -1.385649999999999937e-01 -1.947959999999999969e-01 -7.106899999999999329e-02 1.394450000000000134e-01 -1.954859999999999931e-01 -7.063500000000000334e-02 1.406439999999999912e-01 -1.956070000000000031e-01 -7.230599999999999528e-02 1.393979999999999941e-01 -1.950159999999999949e-01 -7.035800000000000387e-02 1.401940000000000131e-01 -1.947550000000000114e-01 -7.209799999999999542e-02 1.387380000000000002e-01 -1.958560000000000023e-01 -7.117700000000000415e-02 1.397849999999999926e-01 -1.944520000000000137e-01 -7.203700000000000381e-02 1.395190000000000041e-01 -1.950669999999999904e-01 -7.084200000000000219e-02 1.384720000000000117e-01 -1.948400000000000132e-01 -7.139900000000000413e-02 1.399050000000000016e-01 -1.948010000000000019e-01 -7.125900000000000289e-02 1.396509999999999974e-01 1.942669999999999952e-01 7.168499999999999872e-02 -1.380450000000000010e-01 1.941299999999999970e-01 7.098500000000000643e-02 -1.383919999999999872e-01 1.948969999999999869e-01 7.120300000000000240e-02 -1.382670000000000010e-01 1.950709999999999944e-01 7.037699999999999512e-02 -1.385369999999999935e-01 1.943489999999999940e-01 7.031500000000000250e-02 -1.389170000000000127e-01 1.947750000000000037e-01 7.112300000000000566e-02 -1.380159999999999998e-01 1.941930000000000045e-01 7.100299999999999667e-02 -1.380699999999999983e-01 1.935280000000000056e-01 7.076999999999999957e-02 -1.374620000000000009e-01 1.946110000000000062e-01 7.048300000000000398e-02 -1.391809999999999992e-01 1.940350000000000130e-01 7.142199999999999938e-02 -1.379890000000000005e-01 -1.955870000000000108e-01 -7.047000000000000486e-02 1.407720000000000082e-01 -1.955689999999999928e-01 -7.206300000000000205e-02 1.393629999999999869e-01 1.943539999999999990e-01 7.095200000000000118e-02 -1.389029999999999987e-01 -1.948860000000000037e-01 -7.038999999999999424e-02 1.404610000000000025e-01 -1.946730000000000127e-01 -7.185700000000000420e-02 1.387329999999999952e-01 1.950620000000000132e-01 7.130000000000000226e-02 -1.385170000000000012e-01 -1.959660000000000013e-01 -7.121900000000000452e-02 1.403250000000000053e-01 -1.944069999999999965e-01 -7.192300000000000082e-02 1.394759999999999889e-01 1.951199999999999879e-01 7.033799999999999775e-02 -1.385530000000000095e-01 1.941720000000000113e-01 7.008100000000000440e-02 -1.382339999999999958e-01 -1.949170000000000069e-01 -7.098899999999999655e-02 1.385419999999999985e-01 1.948509999999999964e-01 7.102300000000000280e-02 -1.383550000000000058e-01 1.943509999999999960e-01 7.067299999999999971e-02 -1.379039999999999988e-01 -1.947879999999999889e-01 -7.145300000000000262e-02 1.401560000000000028e-01 1.938060000000000060e-01 7.088899999999999368e-02 -1.381689999999999863e-01 1.945020000000000082e-01 7.056800000000000572e-02 -1.388610000000000122e-01 -1.950810000000000044e-01 -7.121399999999999952e-02 1.399579999999999991e-01 1.939990000000000048e-01 7.085800000000000431e-02 -1.374170000000000114e-01 1.943719999999999892e-01 7.041699999999999349e-02 -1.386270000000000002e-01 1.940479999999999983e-01 7.010600000000000165e-02 -1.379509999999999903e-01 -1.951849999999999974e-01 -7.181400000000000283e-02 1.392130000000000034e-01 -1.947850000000000137e-01 -7.146600000000000175e-02 1.398079999999999878e-01 -1.957679999999999976e-01 -7.203400000000000081e-02 1.396890000000000076e-01 1.940590000000000093e-01 7.141799999999999538e-02 -1.383550000000000058e-01 1.938570000000000015e-01 7.041899999999999549e-02 -1.375540000000000096e-01 -1.948719999999999897e-01 -7.143499999999999850e-02 1.403600000000000125e-01 -1.953789999999999971e-01 -7.133699999999999763e-02 1.391840000000000022e-01 1.947589999999999877e-01 7.117500000000000215e-02 -1.379749999999999865e-01 1.951410000000000089e-01 7.059100000000000097e-02 -1.383489999999999998e-01 -1.951459999999999861e-01 -7.074199999999999933e-02 1.401449999999999918e-01 -1.949220000000000119e-01 -7.086399999999999644e-02 1.399519999999999931e-01 1.939400000000000013e-01 7.169799999999999784e-02 -1.378520000000000023e-01 1.951990000000000114e-01 7.077500000000000457e-02 -1.380290000000000128e-01 -1.954790000000000139e-01 -7.100700000000000067e-02 1.391360000000000097e-01 -1.945270000000000055e-01 -7.026599999999999513e-02 1.393739999999999979e-01 -1.951809999999999934e-01 -7.153800000000000436e-02 1.394450000000000134e-01 -1.949649999999999994e-01 -7.189900000000000457e-02 1.405039999999999900e-01 -1.959980000000000055e-01 -7.181800000000000683e-02 1.398919999999999886e-01 -1.948590000000000044e-01 -7.159699999999999398e-02 1.407789999999999875e-01 -1.956469999999999876e-01 -7.120700000000000640e-02 1.396360000000000101e-01 -1.954529999999999879e-01 -7.077400000000000357e-02 1.406290000000000040e-01 -1.951759999999999884e-01 -7.069599999999999496e-02 1.402359999999999995e-01 -1.954680000000000029e-01 -7.067800000000000471e-02 1.391709999999999892e-01 -1.944589999999999930e-01 -7.051300000000000623e-02 1.398590000000000111e-01 1.943759999999999932e-01 7.090799999999999881e-02 -1.383250000000000035e-01 1.943020000000000025e-01 7.060600000000000209e-02 -1.390639999999999932e-01 1.938300000000000023e-01 7.030100000000000238e-02 -1.383379999999999888e-01 1.940649999999999875e-01 7.122499999999999665e-02 -1.388959999999999917e-01 1.937270000000000103e-01 7.074400000000000133e-02 -1.380319999999999880e-01 1.947280000000000122e-01 7.152200000000000224e-02 -1.384610000000000007e-01 1.952490000000000059e-01 7.045899999999999386e-02 -1.387599999999999945e-01 1.940560000000000063e-01 7.162799999999999723e-02 -1.381689999999999863e-01 1.951789999999999914e-01 7.059999999999999609e-02 -1.385059999999999902e-01 1.940669999999999895e-01 7.112300000000000566e-02 -1.377730000000000066e-01 1.941900000000000015e-01 7.086699999999999944e-02 -1.388639999999999874e-01 1.940109999999999890e-01 7.046499999999999986e-02 -1.383570000000000078e-01 -1.951819999999999944e-01 -7.168800000000000172e-02 1.393320000000000114e-01 -1.947760000000000047e-01 -7.171099999999999697e-02 1.400669999999999971e-01 -1.959289999999999921e-01 -7.212699999999999667e-02 1.398369999999999891e-01 1.938429999999999875e-01 7.132299999999999751e-02 -1.381680000000000130e-01 1.936589999999999978e-01 7.057299999999999685e-02 -1.373580000000000079e-01 -1.948439999999999894e-01 -7.149600000000000399e-02 1.403109999999999913e-01 -1.954079999999999984e-01 -7.134400000000000464e-02 1.391330000000000067e-01 1.946060000000000012e-01 7.125700000000000089e-02 -1.378330000000000111e-01 1.953350000000000086e-01 7.025299999999999601e-02 -1.383209999999999995e-01 -1.951559999999999961e-01 -7.072299999999999420e-02 1.400409999999999988e-01 -1.952109999999999956e-01 -7.063800000000000634e-02 1.397710000000000063e-01 1.940669999999999895e-01 7.158000000000000473e-02 -1.378089999999999871e-01 1.950830000000000064e-01 7.062300000000000522e-02 -1.380010000000000125e-01 -1.955770000000000008e-01 -7.074600000000000333e-02 1.389489999999999892e-01 -1.945340000000000125e-01 -7.044400000000000661e-02 1.395009999999999861e-01 3.879999999999999985e-04 -2.539999999999999940e-04 -2.699999999999999899e-05 -1.137391999999999959e+00 -6.864299999999999846e-01 2.886170000000000124e-01 1.137186999999999948e+00 6.862200000000000522e-01 -2.920309999999999850e-01 1.137280999999999986e+00 6.870920000000000361e-01 -2.914729999999999821e-01 5.919999999999999698e-04 -4.530000000000000064e-04 -9.690000000000000262e-04 -1.136444999999999927e+00 -6.859939999999999927e-01 2.883499999999999952e-01 -7.499999999999999343e-05 -3.009999999999999980e-04 5.720000000000000258e-04 -1.136263999999999941e+00 -6.864010000000000389e-01 2.894419999999999771e-01 1.138082000000000038e+00 6.860319999999999752e-01 -2.921190000000000175e-01 1.136916000000000038e+00 6.877320000000000100e-01 -2.919910000000000005e-01 4.420000000000000101e-04 3.699999999999999811e-05 -7.489999999999999913e-04 -1.136597000000000079e+00 -6.854930000000000190e-01 2.886480000000000157e-01 -2.519999999999999996e-04 -5.619999999999999996e-04 7.889999999999999878e-04 -1.136436000000000002e+00 -6.865470000000000184e-01 2.888029999999999764e-01 1.137250000000000094e+00 6.864320000000000421e-01 -2.925499999999999767e-01 1.137652000000000108e+00 6.876339999999999675e-01 -2.922230000000000105e-01 4.360000000000000269e-04 -4.550000000000000008e-04 -9.219999999999999680e-04 -1.136063000000000045e+00 -6.857860000000000067e-01 2.885150000000000214e-01 7.700000000000000139e-05 -1.605000000000000090e-03 6.620000000000000450e-04 1.137208999999999914e+00 6.856419999999999737e-01 -2.913490000000000246e-01 -1.136290000000000022e+00 -6.860500000000000487e-01 2.879450000000000065e-01 5.400000000000000069e-04 -1.851999999999999914e-03 1.128000000000000096e-03 1.137342999999999993e+00 6.854569999999999830e-01 -2.916670000000000096e-01 -1.136506999999999934e+00 -6.863179999999999836e-01 2.885530000000000039e-01 1.930000000000000021e-04 -1.536000000000000039e-03 1.154000000000000078e-03 1.137119999999999909e+00 6.859739999999999727e-01 -2.915249999999999786e-01 -1.135904999999999943e+00 -6.861519999999999841e-01 2.885329999999999839e-01 3.179999999999999776e-04 -3.950000000000000061e-04 9.929999999999999591e-04 1.137388999999999983e+00 6.856609999999999649e-01 -2.912350000000000216e-01 1.137321999999999944e+00 6.858079999999999732e-01 -2.908760000000000234e-01 7.870000000000000476e-04 2.149999999999999947e-04 4.060000000000000024e-04 -8.600000000000000331e-05 -7.789999999999999616e-04 1.379000000000000017e-03 1.137407999999999975e+00 6.856929999999999970e-01 -2.912799999999999834e-01 1.136776999999999926e+00 6.861949999999999994e-01 -2.914660000000000029e-01 5.169999999999999899e-04 7.249999999999999500e-04 7.269999999999999987e-04 -1.939999999999999993e-04 -6.769999999999999759e-04 1.523000000000000048e-03 1.136854000000000031e+00 6.859070000000000444e-01 -2.915309999999999846e-01 1.136786999999999992e+00 6.861869999999999914e-01 -2.914439999999999809e-01 2.730000000000000222e-04 3.939999999999999817e-04 1.043000000000000090e-03 -1.920000000000000049e-04 -6.470000000000000057e-04 2.588000000000000023e-03 1.136937000000000086e+00 6.863029999999999964e-01 -2.898229999999999973e-01 5.540000000000000219e-04 -7.069999999999999462e-04 2.530999999999999830e-03 1.137210000000000054e+00 6.861249999999999849e-01 -2.904209999999999847e-01 1.920000000000000049e-04 -6.149999999999999868e-04 2.949999999999999931e-03 1.136590999999999907e+00 6.865719999999999601e-01 -2.902529999999999832e-01 -1.137502999999999931e+00 -6.852489999999999970e-01 2.892910000000000204e-01 -1.136500000000000066e+00 -6.856689999999999729e-01 2.882919999999999927e-01 -1.136301000000000005e+00 -6.852319999999999522e-01 2.898080000000000100e-01 -1.136571999999999916e+00 -6.855149999999999855e-01 2.882819999999999827e-01 -1.136335000000000095e+00 -6.851530000000000120e-01 2.892230000000000079e-01 -1.136303999999999981e+00 -6.852629999999999555e-01 2.884220000000000117e-01 -1.136142999999999903e+00 -6.853529999999999900e-01 2.884220000000000117e-01 -1.136592999999999964e+00 -6.849499999999999478e-01 2.891650000000000054e-01 -1.136530999999999958e+00 -6.851080000000000503e-01 2.891549999999999954e-01 2.100000000000000087e-04 3.179999999999999776e-04 1.216000000000000067e-03 -1.137839000000000045e+00 -6.863749999999999574e-01 2.899189999999999823e-01 1.136986999999999970e+00 6.871310000000000473e-01 -2.906520000000000215e-01 1.137189999999999923e+00 6.861789999999999834e-01 -2.902420000000000000e-01 7.839999999999999747e-04 2.210000000000000050e-04 -3.869999999999999742e-04 -1.137281999999999904e+00 -6.849870000000000125e-01 2.897700000000000276e-01 -7.399999999999999623e-05 2.020000000000000040e-04 1.516999999999999902e-03 -1.136722000000000010e+00 -6.861909999999999954e-01 2.902420000000000000e-01 1.137372000000000050e+00 6.870100000000000096e-01 -2.907710000000000017e-01 1.136824000000000057e+00 6.864360000000000461e-01 -2.908959999999999879e-01 4.879999999999999898e-04 8.599999999999999789e-04 6.999999999999999895e-06 -1.136994000000000060e+00 -6.847130000000000161e-01 2.897489999999999788e-01 -3.930000000000000117e-04 9.399999999999999448e-05 1.905000000000000009e-03 -1.136574999999999891e+00 -6.863390000000000324e-01 2.898959999999999870e-01 1.136851999999999974e+00 6.872789999999999733e-01 -2.911250000000000226e-01 1.136941999999999897e+00 6.864989999999999704e-01 -2.909280000000000199e-01 -6.200000000000000270e-05 5.869999999999999567e-04 3.409999999999999945e-04 -1.136303000000000063e+00 -6.849769999999999470e-01 2.899789999999999868e-01 -1.420000000000000092e-04 -1.642999999999999929e-03 6.660000000000000338e-04 1.137000999999999928e+00 6.868940000000000046e-01 -2.902850000000000152e-01 -1.136762999999999968e+00 -6.867450000000000498e-01 2.881679999999999797e-01 9.160000000000000390e-04 -1.984000000000000086e-03 6.800000000000000488e-04 1.137178000000000022e+00 6.869910000000000183e-01 -2.905369999999999897e-01 -1.136835000000000040e+00 -6.866889999999999938e-01 2.886349999999999749e-01 1.600000000000000131e-04 -1.794999999999999938e-03 9.150000000000000147e-04 1.136857999999999924e+00 6.878170000000000117e-01 -2.909880000000000244e-01 -1.136269999999999891e+00 -6.870810000000000528e-01 2.889570000000000194e-01 -1.136779999999999902e+00 -6.850899999999999768e-01 2.902250000000000107e-01 1.137674999999999992e+00 6.844970000000000221e-01 -2.922219999999999818e-01 -2.010000000000000068e-04 -7.399999999999999623e-05 -1.669999999999999935e-04 -1.136338999999999988e+00 -6.849199999999999733e-01 2.902159999999999740e-01 1.137944999999999984e+00 6.842009999999999481e-01 -2.918109999999999871e-01 4.369999999999999970e-04 1.800000000000000113e-04 -9.100000000000000016e-04 -1.136460999999999943e+00 -6.855520000000000502e-01 2.901440000000000130e-01 1.137407000000000057e+00 6.846520000000000383e-01 -2.923499999999999988e-01 3.840000000000000097e-04 -2.290000000000000098e-04 -4.429999999999999802e-04 -5.300000000000000078e-05 9.240000000000000166e-04 1.528999999999999977e-03 -1.136849999999999916e+00 -6.845400000000000373e-01 2.903769999999999962e-01 1.136949999999999905e+00 6.876989999999999492e-01 -2.920479999999999743e-01 1.137275999999999954e+00 6.871359999999999690e-01 -2.914039999999999964e-01 2.329999999999999986e-04 4.809999999999999823e-04 -4.199999999999999768e-05 -1.136306999999999956e+00 -6.849049999999999860e-01 2.889369999999999994e-01 -2.599999999999999840e-05 5.310000000000000050e-04 1.739000000000000094e-03 -1.136023000000000005e+00 -6.849709999999999965e-01 2.902669999999999972e-01 1.137755000000000072e+00 6.870180000000000176e-01 -2.916270000000000251e-01 1.136773000000000033e+00 6.873569999999999958e-01 -2.916159999999999863e-01 2.020000000000000040e-04 1.399999999999999877e-04 -2.169999999999999891e-04 -1.137270000000000003e+00 -6.849650000000000460e-01 2.890190000000000259e-01 3.029999999999999924e-04 8.270000000000000441e-04 1.044999999999999922e-03 -1.136697000000000068e+00 -6.845999999999999863e-01 2.898379999999999845e-01 1.137625000000000108e+00 6.868140000000000356e-01 -2.921290000000000275e-01 1.137084999999999901e+00 6.873190000000000133e-01 -2.913270000000000026e-01 9.859999999999998974e-04 2.579999999999999828e-04 -4.699999999999999859e-04 -1.135858999999999952e+00 -6.851040000000000463e-01 2.895070000000000143e-01 1.137413000000000007e+00 6.859690000000000509e-01 -2.907609999999999917e-01 -1.060000000000000016e-04 1.179999999999999951e-04 8.419999999999999750e-04 1.137602000000000002e+00 6.853430000000000355e-01 -2.901730000000000143e-01 7.479999999999999670e-04 7.600000000000000418e-05 4.979999999999999618e-04 1.137264999999999970e+00 6.861810000000000409e-01 -2.908879999999999799e-01 2.709999999999999735e-04 3.800000000000000209e-05 6.329999999999999906e-04 3.139999999999999888e-04 1.910000000000000077e-04 1.708000000000000100e-03 1.137086000000000041e+00 6.863000000000000211e-01 -2.914019999999999944e-01 1.137199999999999989e+00 6.875930000000000097e-01 -2.903020000000000045e-01 4.650000000000000270e-04 -7.799999999999999859e-04 2.840000000000000185e-04 -2.579999999999999828e-04 1.800000000000000046e-05 2.083999999999999915e-03 1.137246999999999897e+00 6.860629999999999784e-01 -2.914010000000000211e-01 1.136414999999999953e+00 6.880319999999999769e-01 -2.907689999999999997e-01 1.900000000000000105e-04 -6.629999999999999609e-04 4.300000000000000165e-05 5.180000000000000143e-04 -1.520000000000000084e-04 1.477000000000000014e-03 1.137321999999999944e+00 6.857670000000000154e-01 -2.915619999999999878e-01 1.136889000000000038e+00 6.876200000000000090e-01 -2.901690000000000103e-01 8.339999999999999974e-04 -7.640000000000000306e-04 1.279999999999999942e-04 -1.136981000000000019e+00 -6.851639999999999953e-01 2.900840000000000085e-01 -1.136079000000000061e+00 -6.853660000000000307e-01 2.905550000000000077e-01 -1.137102000000000057e+00 -6.857189999999999674e-01 2.906159999999999854e-01 -1.136646999999999963e+00 -6.863150000000000084e-01 2.900260000000000060e-01 -1.136004999999999932e+00 -6.862129999999999619e-01 2.886050000000000004e-01 -1.136171999999999960e+00 -6.863129999999999509e-01 2.900829999999999798e-01 -1.137343999999999911e+00 -6.865189999999999904e-01 2.890019999999999811e-01 -1.136740000000000084e+00 -6.861530000000000129e-01 2.893649999999999833e-01 -1.136397000000000101e+00 -6.861000000000000432e-01 2.892879999999999896e-01 -1.137086000000000041e+00 -6.865729999999999889e-01 2.892569999999999864e-01 1.137680999999999942e+00 6.855970000000000120e-01 -2.921070000000000055e-01 6.700000000000000226e-05 -6.809999999999999647e-04 -1.128000000000000096e-03 -1.136532000000000098e+00 -6.864350000000000174e-01 2.893640000000000101e-01 1.137885000000000035e+00 6.851770000000000360e-01 -2.917330000000000201e-01 5.680000000000000370e-04 -7.309999999999999875e-04 -1.918000000000000000e-03 -1.136754000000000042e+00 -6.868220000000000436e-01 2.893430000000000168e-01 1.136994999999999978e+00 6.854649999999999910e-01 -2.921429999999999860e-01 8.600000000000000331e-05 -7.119999999999999593e-04 -1.315999999999999896e-03 2.410000000000000033e-04 2.910000000000000260e-04 9.719999999999999907e-04 -1.137351999999999919e+00 -6.843000000000000194e-01 2.905670000000000197e-01 1.137121999999999966e+00 6.856370000000000520e-01 -2.916860000000000008e-01 1.137353000000000058e+00 6.862610000000000099e-01 -2.915679999999999938e-01 2.180000000000000134e-04 -4.600000000000000004e-05 3.840000000000000097e-04 -1.136662999999999979e+00 -6.856240000000000112e-01 2.877600000000000158e-01 -3.899999999999999929e-05 -2.429999999999999977e-04 7.200000000000000453e-04 -1.136808999999999958e+00 -6.845390000000000086e-01 2.904439999999999800e-01 1.137385000000000090e+00 6.850640000000000063e-01 -2.914089999999999736e-01 1.136818000000000106e+00 6.866759999999999531e-01 -2.920320000000000138e-01 2.590000000000000071e-04 -5.800000000000000034e-05 -3.570000000000000040e-04 -1.137353000000000058e+00 -6.858239999999999892e-01 2.880750000000000255e-01 3.440000000000000132e-04 -9.000000000000000567e-05 3.860000000000000041e-04 -1.136678000000000077e+00 -6.844139999999999668e-01 2.900659999999999905e-01 1.137489999999999890e+00 6.848269999999999635e-01 -2.919419999999999793e-01 1.136859000000000064e+00 6.864860000000000406e-01 -2.916000000000000258e-01 8.589999999999999546e-04 1.499999999999999869e-04 1.000000000000000048e-04 -1.136382999999999921e+00 -6.855890000000000040e-01 2.887339999999999907e-01