1.933079999999999909e+00 2.796549999999999869e+00 4.999909999999999854e+00 3.366399999999999948e-01 3.491179999999999950e+00 2.358810000000000073e+00 1.667890000000000095e+00 9.770299999999999541e-01 2.358830000000000204e+00 3.222440000000000193e+00 3.491179999999999950e+00 2.358820000000000139e+00 2.156419999999999781e+00 7.824819999999999887e+00 4.999900000000000233e+00 1.891189999999999927e+00 6.005320000000000213e+00 2.358830000000000204e+00 3.487670000000000048e+00 5.310699999999999754e+00 4.999909999999999854e+00 4.818889999999999674e+00 2.796539999999999804e+00 4.999909999999999854e+00 5.042220000000000368e+00 7.824819999999999887e+00 4.999909999999999854e+00 9.049199999999999466e-01 3.914309999999999956e+00 9.746489999999999654e+00 2.236169999999999991e+00 1.400150000000000006e+00 9.746529999999999916e+00 3.790719999999999867e+00 3.914299999999999891e+00 9.746510000000000673e+00 2.459480000000000111e+00 6.428449999999999775e+00 9.746529999999999916e+00 2.501370000000000093e+00 3.219669999999999810e+00 1.238757999999999981e+01 2.724699999999999900e+00 8.247949999999999449e+00 1.238758999999999943e+01 4.055939999999999657e+00 5.733819999999999695e+00 1.238758999999999943e+01 5.387170000000000236e+00 3.219669999999999810e+00 1.238757999999999981e+01 5.610500000000000043e+00 8.247960000000000846e+00 1.238760000000000083e+01 3.069659999999999833e+00 3.642790000000000195e+00 1.977526999999999902e+01 2.804450000000000109e+00 1.823269999999999946e+00 1.713420999999999950e+01 4.359009999999999607e+00 4.337419999999999831e+00 1.713419000000000025e+01 1.473209999999999908e+00 4.337430000000000341e+00 1.713419000000000025e+01 3.292980000000000018e+00 8.671079999999999899e+00 1.977526999999999902e+01 3.027769999999999850e+00 6.851560000000000095e+00 1.713421999999999912e+01 4.624240000000000350e+00 6.156959999999999766e+00 1.977527999999999864e+01 5.955470000000000041e+00 3.642790000000000195e+00 1.977528999999999826e+01 6.178770000000000095e+00 8.671079999999999899e+00 1.977526999999999902e+01 7.832799999999999763e-01 1.354775000000000063e+01 2.358810000000000073e+00 3.934299999999999908e+00 1.536726999999999954e+01 4.999909999999999854e+00 5.599600000000000133e-01 8.519450000000000855e+00 2.358820000000000139e+00 3.445759999999999934e+00 8.519460000000000477e+00 2.358810000000000073e+00 2.379719999999999835e+00 1.285310999999999915e+01 4.999909999999999854e+00 2.114510000000000112e+00 1.103359999999999985e+01 2.358830000000000204e+00 3.710980000000000167e+00 1.033899000000000079e+01 4.999900000000000233e+00 3.669080000000000119e+00 1.354775000000000063e+01 2.358800000000000008e+00 5.265530000000000044e+00 1.285310999999999915e+01 4.999900000000000233e+00 1.351560000000000095e+00 1.397086999999999968e+01 9.746489999999999654e+00 4.014039999999999608e+00 8.942579999999999529e+00 9.746489999999999654e+00 2.682789999999999786e+00 1.145672000000000068e+01 9.746529999999999916e+00 4.237359999999999793e+00 1.397087999999999930e+01 9.746510000000000673e+00 1.128249999999999975e+00 8.942589999999999151e+00 9.746489999999999654e+00 4.502570000000000405e+00 1.579039999999999999e+01 1.238758999999999943e+01 2.948010000000000019e+00 1.327623999999999960e+01 1.238757999999999981e+01 4.279259999999999842e+00 1.076211999999999946e+01 1.238760000000000083e+01 5.833809999999999718e+00 1.327622999999999998e+01 1.238758999999999943e+01 1.919829999999999925e+00 1.439400000000000013e+01 1.713419000000000025e+01 5.070850000000000080e+00 1.621351999999999904e+01 1.977527999999999864e+01 4.582329999999999792e+00 9.365719999999999601e+00 1.713418000000000063e+01 1.696520000000000028e+00 9.365709999999999980e+00 1.713419000000000025e+01 3.516300000000000203e+00 1.369936000000000043e+01 1.977528999999999826e+01 3.251069999999999904e+00 1.187986000000000075e+01 1.713421999999999912e+01 4.847550000000000026e+00 1.118523000000000067e+01 1.977528999999999826e+01 4.805640000000000356e+00 1.439400000000000013e+01 1.713419000000000025e+01 6.402079999999999771e+00 1.369935000000000080e+01 1.977527999999999864e+01 4.776989999999999625e+00 6.005320000000000213e+00 2.358839999999999826e+00 4.553679999999999950e+00 9.770400000000000196e-01 2.358839999999999826e+00 7.704690000000000261e+00 2.796539999999999804e+00 4.999900000000000233e+00 6.108240000000000336e+00 3.491179999999999950e+00 2.358810000000000073e+00 7.439479999999999649e+00 9.770400000000000196e-01 2.358839999999999826e+00 6.373470000000000191e+00 5.310690000000000133e+00 4.999909999999999854e+00 7.928009999999999557e+00 7.824830000000000396e+00 4.999889999999999723e+00 7.662790000000000212e+00 6.005320000000000213e+00 2.358839999999999826e+00 9.259259999999999380e+00 5.310699999999999754e+00 4.999920000000000364e+00 5.345279999999999809e+00 6.428440000000000154e+00 9.746529999999999916e+00 6.676520000000000010e+00 3.914309999999999956e+00 9.746499999999999275e+00 8.007770000000000721e+00 1.400160000000000071e+00 9.746529999999999916e+00 8.231090000000000018e+00 6.428440000000000154e+00 9.746529999999999916e+00 5.121970000000000134e+00 1.400169999999999915e+00 9.746520000000000294e+00 8.272980000000000445e+00 3.219669999999999810e+00 1.238758999999999943e+01 6.941740000000000244e+00 5.733819999999999695e+00 1.238760000000000083e+01 8.496299999999999741e+00 8.247960000000000846e+00 1.238758999999999943e+01 9.827540000000000830e+00 5.733819999999999695e+00 1.238760000000000083e+01 5.913560000000000372e+00 6.851560000000000095e+00 1.713419999999999987e+01 8.841269999999999740e+00 3.642790000000000195e+00 1.977527999999999864e+01 7.244819999999999816e+00 4.337419999999999831e+00 1.713419999999999987e+01 8.576060000000000016e+00 1.823280000000000012e+00 1.713420999999999950e+01 5.690249999999999808e+00 1.823280000000000012e+00 1.713421999999999912e+01 7.510019999999999918e+00 6.156959999999999766e+00 1.977528999999999826e+01 9.064579999999999416e+00 8.671070000000000277e+00 1.977527999999999864e+01 8.799360000000000070e+00 6.851569999999999716e+00 1.713421999999999912e+01 1.039583999999999975e+01 6.156959999999999766e+00 1.977527999999999864e+01 6.820100000000000051e+00 1.536725999999999992e+01 4.999900000000000233e+00 6.331550000000000011e+00 8.519470000000000098e+00 2.358800000000000008e+00 5.000309999999999810e+00 1.103359000000000023e+01 2.358839999999999826e+00 6.596770000000000245e+00 1.033899000000000079e+01 4.999909999999999854e+00 8.151320000000000121e+00 1.285312000000000054e+01 4.999889999999999723e+00 6.554870000000000196e+00 1.354773999999999923e+01 2.358800000000000008e+00 7.886110000000000397e+00 1.103359000000000023e+01 2.358830000000000204e+00 9.705890000000000128e+00 1.536725999999999992e+01 4.999909999999999854e+00 9.482570000000000832e+00 1.033899000000000079e+01 4.999900000000000233e+00 6.899840000000000195e+00 8.942589999999999151e+00 9.746489999999999654e+00 5.568599999999999994e+00 1.145672000000000068e+01 9.746529999999999916e+00 7.123160000000000380e+00 1.397087999999999930e+01 9.746510000000000673e+00 8.454390000000000072e+00 1.145672000000000068e+01 9.746520000000000294e+00 7.388370000000000104e+00 1.579039999999999999e+01 1.238758999999999943e+01 7.165060000000000429e+00 1.076210999999999984e+01 1.238761000000000045e+01 8.719599999999999795e+00 1.327623999999999960e+01 1.238758999999999943e+01 1.027417999999999942e+01 1.579038000000000075e+01 1.238758999999999943e+01 1.005085000000000051e+01 1.076210000000000022e+01 1.238760000000000083e+01 7.956649999999999778e+00 1.621350999999999942e+01 1.977528999999999826e+01 7.468119999999999870e+00 9.365719999999999601e+00 1.713419000000000025e+01 6.136879999999999669e+00 1.187984999999999935e+01 1.713421999999999912e+01 7.733349999999999724e+00 1.118524000000000029e+01 1.977528999999999826e+01 9.287879999999999470e+00 1.369937000000000005e+01 1.977526999999999902e+01 7.691430000000000433e+00 1.439400000000000013e+01 1.713418000000000063e+01 9.022679999999999367e+00 1.187984999999999935e+01 1.713420999999999950e+01 1.084246000000000087e+01 1.621350999999999942e+01 1.977528999999999826e+01 1.061913999999999980e+01 1.118524000000000029e+01 1.977527999999999864e+01 3.466670000000000140e+00 6.915090000000000181e+00 3.679339999999999833e+00 3.575599999999999890e-01 1.886789999999999967e+00 3.679339999999999833e+00 1.674150000000000027e+00 2.600659999999999972e+00 1.270869999999999944e+00 3.228730000000000100e+00 5.114779999999999660e+00 1.270869999999999944e+00 1.912109999999999976e+00 4.400940000000000296e+00 3.679409999999999847e+00 3.243370000000000086e+00 1.886810000000000098e+00 3.679349999999999898e+00 5.808799999999999519e-01 6.915090000000000181e+00 3.679349999999999898e+00 3.005399999999999849e+00 8.651000000000000356e-02 1.270869999999999944e+00 3.429300000000000126e-01 5.114779999999999660e+00 1.270869999999999944e+00 1.196200000000000041e-01 8.648999999999999744e-02 1.270869999999999944e+00 4.034959999999999880e+00 7.338199999999999612e+00 1.106701999999999941e+01 1.926819999999999977e+00 1.172900000000000054e+00 6.088009999999999700e+00 3.481380000000000141e+00 3.687040000000000095e+00 6.087959999999999816e+00 2.150150000000000006e+00 6.201190000000000424e+00 6.088009999999999700e+00 9.258300000000000418e-01 2.309930000000000039e+00 1.106704000000000043e+01 2.242430000000000145e+00 3.023800000000000043e+00 8.658559999999999590e+00 3.797010000000000218e+00 5.537899999999999601e+00 8.658569999999999212e+00 2.480399999999999938e+00 4.824060000000000237e+00 1.106709999999999994e+01 3.811630000000000074e+00 2.309930000000000039e+00 1.106701999999999941e+01 1.149159999999999959e+00 7.338199999999999612e+00 1.106704000000000043e+01 3.573690000000000033e+00 5.096300000000000274e-01 8.658559999999999590e+00 4.812630000000000408e+00 1.172900000000000054e+00 6.088009999999999700e+00 5.035949999999999704e+00 6.201200000000000045e+00 6.088020000000000209e+00 9.112200000000000299e-01 5.537899999999999601e+00 8.658559999999999590e+00 6.879100000000000215e-01 5.096300000000000274e-01 8.658559999999999590e+00 4.365300000000000402e+00 5.961030000000000051e+00 1.604624000000000095e+01 2.810709999999999820e+00 3.446919999999999984e+00 1.604626999999999981e+01 2.495109999999999939e+00 1.596039999999999903e+00 1.347570999999999941e+01 4.049680000000000391e+00 4.110159999999999592e+00 1.347564000000000028e+01 2.718420000000000059e+00 6.624329999999999607e+00 1.347570999999999941e+01 4.141980000000000217e+00 9.327499999999999680e-01 1.604626000000000019e+01 1.479500000000000037e+00 5.961039999999999672e+00 1.604625000000000057e+01 5.380910000000000082e+00 1.596030000000000060e+00 1.347570999999999941e+01 5.604230000000000267e+00 6.624319999999999986e+00 1.347570999999999941e+01 1.256189999999999918e+00 9.327600000000000335e-01 1.604625000000000057e+01 4.603250000000000064e+00 7.761339999999999684e+00 1.845470999999999862e+01 1.494129999999999958e+00 2.733049999999999979e+00 1.845471999999999824e+01 3.286700000000000177e+00 7.047450000000000436e+00 2.086339999999999861e+01 3.048690000000000122e+00 5.247180000000000177e+00 1.845478999999999914e+01 3.063400000000000123e+00 2.019169999999999909e+00 2.086339999999999861e+01 4.379920000000000258e+00 2.733060000000000045e+00 1.845471999999999824e+01 4.617950000000000443e+00 4.533280000000000420e+00 2.086335000000000051e+01 1.717440000000000078e+00 7.761339999999999684e+00 1.845473000000000141e+01 5.949189999999999756e+00 2.019169999999999909e+00 2.086338999999999899e+01 6.172519999999999563e+00 7.047439999999999927e+00 2.086339999999999861e+01 2.358740000000000059e+00 1.445750999999999920e+01 3.679409999999999847e+00 3.689979999999999816e+00 1.194336000000000020e+01 3.679339999999999833e+00 3.452030000000000154e+00 1.014306999999999981e+01 1.270880000000000010e+00 2.135440000000000005e+00 9.429220000000000823e+00 3.679419999999999913e+00 8.041899999999999604e-01 1.194336999999999982e+01 3.679330000000000211e+00 2.120779999999999887e+00 1.265723000000000020e+01 1.270880000000000010e+00 1.897459999999999924e+00 7.628949999999999676e+00 1.270869999999999944e+00 5.662500000000000311e-01 1.014306000000000019e+01 1.270880000000000010e+00 4.258259999999999934e+00 1.236649000000000065e+01 1.106703000000000081e+01 3.704709999999999948e+00 8.715320000000000178e+00 6.087959999999999816e+00 2.927029999999999799e+00 1.488063000000000002e+01 1.106709999999999994e+01 2.373450000000000060e+00 1.122946999999999917e+01 6.088009999999999700e+00 3.928010000000000002e+00 1.374361000000000033e+01 6.087950000000000195e+00 4.020319999999999894e+00 1.056619000000000064e+01 8.658549999999999969e+00 2.703710000000000058e+00 9.852349999999999497e+00 1.106709000000000032e+01 1.372460000000000013e+00 1.236650000000000027e+01 1.106703000000000081e+01 2.689060000000000006e+00 1.308036000000000065e+01 8.658569999999999212e+00 2.465749999999999886e+00 8.052070000000000505e+00 8.658580000000000609e+00 5.259249999999999758e+00 1.122946999999999917e+01 6.088009999999999700e+00 1.134530000000000038e+00 1.056620000000000026e+01 8.658569999999999212e+00 4.588599999999999568e+00 1.098931999999999931e+01 1.604625000000000057e+01 3.257340000000000124e+00 1.350348999999999933e+01 1.604626000000000019e+01 4.496290000000000120e+00 1.416672999999999938e+01 1.347564999999999991e+01 4.272979999999999556e+00 9.138439999999999230e+00 1.347564999999999991e+01 2.941739999999999799e+00 1.165260999999999925e+01 1.347569999999999979e+01 3.034040000000000070e+00 8.475199999999999179e+00 1.604626000000000019e+01 5.827549999999999564e+00 1.165259999999999962e+01 1.347570999999999941e+01 1.702800000000000091e+00 1.098930999999999969e+01 1.604626000000000019e+01 5.064580000000000304e+00 1.458985999999999983e+01 2.086333000000000126e+01 4.826559999999999739e+00 1.278961999999999932e+01 1.845471999999999824e+01 3.510019999999999918e+00 1.207573000000000008e+01 2.086339999999999861e+01 3.272009999999999863e+00 1.027547999999999995e+01 1.845477999999999952e+01 4.841260000000000119e+00 9.561579999999999302e+00 2.086333000000000126e+01 1.940760000000000041e+00 1.278961999999999932e+01 1.845471999999999824e+01 3.495319999999999983e+00 1.530375000000000085e+01 1.845478999999999914e+01 6.395830000000000126e+00 1.207573999999999970e+01 2.086338999999999899e+01 7.683720000000000105e+00 4.400940000000000296e+00 3.679409999999999847e+00 6.352479999999999905e+00 6.915090000000000181e+00 3.679339999999999833e+00 6.114539999999999864e+00 5.114779999999999660e+00 1.270880000000000010e+00 4.797920000000000407e+00 4.400929999999999787e+00 3.679419999999999913e+00 6.129150000000000098e+00 1.886800000000000033e+00 3.679330000000000211e+00 7.445750000000000313e+00 2.600670000000000037e+00 1.270880000000000010e+00 4.559949999999999726e+00 2.600659999999999972e+00 1.270880000000000010e+00 5.891219999999999679e+00 8.648999999999999744e-02 1.270869999999999944e+00 6.920759999999999579e+00 7.338219999999999743e+00 1.106704000000000043e+01 6.367180000000000284e+00 3.687050000000000161e+00 6.087970000000000326e+00 7.698430000000000106e+00 1.172900000000000054e+00 6.088009999999999700e+00 8.252000000000000668e+00 4.824049999999999727e+00 1.106709000000000032e+01 7.921750000000000291e+00 6.201190000000000424e+00 6.088020000000000209e+00 6.682809999999999917e+00 5.537899999999999601e+00 8.658569999999999212e+00 5.366200000000000081e+00 4.824069999999999858e+00 1.106709000000000032e+01 6.697449999999999903e+00 2.309940000000000104e+00 1.106704000000000043e+01 8.014039999999999608e+00 3.023779999999999912e+00 8.658559999999999590e+00 9.252990000000000492e+00 3.687040000000000095e+00 6.087959999999999816e+00 5.128239999999999910e+00 3.023800000000000043e+00 8.658569999999999212e+00 6.459489999999999732e+00 5.096300000000000274e-01 8.658559999999999590e+00 8.582319999999999283e+00 3.446909999999999918e+00 1.604625000000000057e+01 7.251100000000000101e+00 5.961030000000000051e+00 1.604625000000000057e+01 8.490019999999999456e+00 6.624319999999999986e+00 1.347570999999999941e+01 6.935469999999999580e+00 4.110159999999999592e+00 1.347564999999999991e+01 8.266719999999999402e+00 1.596049999999999969e+00 1.347570999999999941e+01 5.696519999999999584e+00 3.446919999999999984e+00 1.604626000000000019e+01 9.821279999999999788e+00 4.110159999999999592e+00 1.347564999999999991e+01 7.027790000000000425e+00 9.327499999999999680e-01 1.604625000000000057e+01 9.058310000000000528e+00 7.047450000000000436e+00 2.086339999999999861e+01 7.489040000000000141e+00 7.761330000000000062e+00 1.845473000000000141e+01 5.934499999999999886e+00 5.247189999999999799e+00 1.845477999999999952e+01 8.835000000000000853e+00 2.019169999999999909e+00 2.086339999999999861e+01 7.265719999999999956e+00 2.733049999999999979e+00 1.845473000000000141e+01 7.503759999999999764e+00 4.533290000000000042e+00 2.086334000000000088e+01 8.820289999999999964e+00 5.247189999999999799e+00 1.845478999999999914e+01 1.038955999999999946e+01 4.533280000000000420e+00 2.086334000000000088e+01 7.892389999999999795e+00 1.265723000000000020e+01 1.270869999999999944e+00 8.130340000000000344e+00 1.445750999999999920e+01 3.679409999999999847e+00 5.021239999999999704e+00 9.429220000000000823e+00 3.679399999999999782e+00 6.575789999999999580e+00 1.194337999999999944e+01 3.679349999999999898e+00 7.907040000000000290e+00 9.429209999999999425e+00 3.679409999999999847e+00 6.337839999999999918e+00 1.014306999999999981e+01 1.270880000000000010e+00 5.244539999999999758e+00 1.445749999999999957e+01 3.679399999999999782e+00 4.783269999999999911e+00 7.628949999999999676e+00 1.270880000000000010e+00 5.006579999999999586e+00 1.265723000000000020e+01 1.270880000000000010e+00 7.669059999999999988e+00 7.628949999999999676e+00 1.270880000000000010e+00 6.590499999999999581e+00 8.715329999999999799e+00 6.087970000000000326e+00 8.460670000000000357e+00 1.308036000000000065e+01 8.658569999999999212e+00 6.813819999999999766e+00 1.374360000000000070e+01 6.087959999999999816e+00 8.145070000000000476e+00 1.122948000000000057e+01 6.088009999999999700e+00 8.698639999999999262e+00 1.488063000000000002e+01 1.106709999999999994e+01 5.589529999999999887e+00 9.852349999999999497e+00 1.106709000000000032e+01 7.144070000000000142e+00 1.236649000000000065e+01 1.106703000000000081e+01 8.475310000000000343e+00 9.852349999999999497e+00 1.106709000000000032e+01 6.906130000000000102e+00 1.056619000000000064e+01 8.658559999999999590e+00 5.812829999999999941e+00 1.488063000000000002e+01 1.106709000000000032e+01 5.351549999999999585e+00 8.052080000000000126e+00 8.658569999999999212e+00 9.476290000000000546e+00 8.715329999999999799e+00 6.087950000000000195e+00 9.699619999999999465e+00 1.374360000000000070e+01 6.087950000000000195e+00 5.574860000000000149e+00 1.308036000000000065e+01 8.658569999999999212e+00 8.237349999999999284e+00 8.052070000000000505e+00 8.658569999999999212e+00 9.028959999999999653e+00 1.350347999999999971e+01 1.604626000000000019e+01 7.158780000000000143e+00 9.138450000000000628e+00 1.347564000000000028e+01 7.474409999999999776e+00 1.098933000000000071e+01 1.604625000000000057e+01 7.382100000000000328e+00 1.416674000000000078e+01 1.347564000000000028e+01 8.713329999999999131e+00 1.165260999999999925e+01 1.347569999999999979e+01 5.919830000000000148e+00 8.475210000000000576e+00 1.604626000000000019e+01 1.004458999999999946e+01 9.138450000000000628e+00 1.347564999999999991e+01 6.143150000000000333e+00 1.350348999999999933e+01 1.604625000000000057e+01 1.026791000000000054e+01 1.416674000000000078e+01 1.347565999999999953e+01 8.805630000000000734e+00 8.475199999999999179e+00 1.604626000000000019e+01 9.281620000000000203e+00 1.207573000000000008e+01 2.086339999999999861e+01 6.157809999999999562e+00 1.027546000000000070e+01 1.845479999999999876e+01 7.727059999999999818e+00 9.561569999999999681e+00 2.086333000000000126e+01 9.043609999999999260e+00 1.027547999999999995e+01 1.845477999999999952e+01 6.381120000000000125e+00 1.530375000000000085e+01 1.845477999999999952e+01 9.266920000000000712e+00 1.530376000000000047e+01 1.845478999999999914e+01 7.712360000000000326e+00 1.278961999999999932e+01 1.845473000000000141e+01 7.950380000000000003e+00 1.458985999999999983e+01 2.086334000000000088e+01 1.061286999999999914e+01 9.561569999999999681e+00 2.086334000000000088e+01 1.083618000000000059e+01 1.458985999999999983e+01 2.086334000000000088e+01