-2.764496116339999844e+03
-2.764440868430000137e+03
-2.764288834330000100e+03
-2.764041207570000097e+03
-2.763700166369999806e+03
-2.763268951689999994e+03
-2.762751800460000140e+03
-2.762153855519999979e+03
-2.761481036520000089e+03
-2.760740033760000188e+03
