1.613310000000000022e-01 -1.493300000000000009e-02 -6.851399999999999713e-01 -1.611809999999999909e-01 1.465200000000000009e-02 6.857769999999999699e-01 -1.612220000000000042e-01 1.497799999999999999e-02 6.856889999999999930e-01 -1.615330000000000099e-01 1.480599999999999972e-02 6.860060000000000047e-01 1.609109999999999985e-01 -1.459900000000000087e-02 -6.852319999999999522e-01 -1.607770000000000032e-01 1.460299999999999966e-02 6.850169999999999870e-01 1.605979999999999908e-01 -1.435799999999999924e-02 -6.847220000000000528e-01 1.610489999999999977e-01 -1.488100000000000013e-02 -6.848790000000000155e-01 1.611899999999999999e-01 -1.459000000000000054e-02 -6.855909999999999505e-01 -1.611509999999999887e-01 1.423999999999999919e-02 6.860150000000000414e-01 -1.608420000000000127e-01 1.494099999999999942e-02 6.850220000000000198e-01 -1.610469999999999957e-01 1.450000000000000074e-02 6.854909999999999615e-01 -1.606509999999999883e-01 1.398800000000000043e-02 6.852979999999999627e-01 1.612820000000000087e-01 -1.504300000000000082e-02 -6.853740000000000387e-01 1.608900000000000052e-01 -1.423400000000000012e-02 -6.856360000000000232e-01 1.607780000000000042e-01 -1.445600000000000010e-02 -6.852589999999999515e-01 1.612719999999999987e-01 -1.510099999999999984e-02 -6.853099999999999747e-01 1.607179999999999997e-01 -1.452499999999999972e-02 -6.857090000000000130e-01 1.608690000000000120e-01 -1.483499999999999923e-02 -6.850270000000000525e-01 -1.607750000000000012e-01 1.426599999999999917e-02 6.859049999999999869e-01 -1.611470000000000125e-01 1.478100000000000074e-02 6.863080000000000291e-01 -1.614680000000000004e-01 1.489099999999999972e-02 6.866569999999999618e-01 1.609780000000000100e-01 -1.470199999999999979e-02 -6.850060000000000038e-01 -1.609150000000000025e-01 1.504699999999999961e-02 6.853120000000000323e-01 1.605010000000000048e-01 -1.440899999999999993e-02 -6.848220000000000418e-01 1.611720000000000097e-01 -1.446199999999999916e-02 -6.855510000000000215e-01 1.611410000000000065e-01 -1.477499999999999994e-02 -6.850429999999999575e-01 -1.614740000000000064e-01 1.436400000000000003e-02 6.866950000000000554e-01 1.605399999999999883e-01 -1.438000000000000042e-02 -6.846250000000000391e-01 -1.614190000000000069e-01 1.453800000000000057e-02 6.861059999999999937e-01 -1.612699999999999967e-01 1.474600000000000043e-02 6.859009999999999829e-01 1.611200000000000132e-01 -1.474699999999999969e-02 -6.852789999999999715e-01 -1.607790000000000052e-01 1.422900000000000033e-02 6.858619999999999717e-01 1.606110000000000038e-01 -1.451799999999999966e-02 -6.851099999999999968e-01 -1.616229999999999889e-01 1.442300000000000006e-02 6.867250000000000298e-01 1.610290000000000055e-01 -1.463099999999999991e-02 -6.849380000000000468e-01 -1.615640000000000132e-01 1.501700000000000083e-02 6.862679999999999891e-01 -1.614639999999999964e-01 1.469600000000000073e-02 6.867739999999999956e-01 -1.609740000000000060e-01 1.487400000000000007e-02 6.855689999999999840e-01 -1.613040000000000029e-01 1.490400000000000058e-02 6.860429999999999584e-01 -1.615090000000000137e-01 1.472500000000000024e-02 6.866229999999999833e-01 1.608100000000000085e-01 -1.488800000000000019e-02 -6.849370000000000180e-01 1.609800000000000120e-01 -1.473999999999999963e-02 -6.849290000000000100e-01 1.606789999999999885e-01 -1.440699999999999967e-02 -6.850159999999999583e-01 1.608690000000000120e-01 -1.458500000000000074e-02 -6.851380000000000248e-01 -1.611239999999999895e-01 1.443499999999999991e-02 6.861000000000000432e-01 1.607280000000000098e-01 -1.437699999999999916e-02 -6.851390000000000535e-01 -1.614289999999999892e-01 1.512400000000000029e-02 6.861150000000000304e-01 -1.609700000000000020e-01 1.493700000000000062e-02 6.859929999999999639e-01 1.610179999999999945e-01 -1.474899999999999996e-02 -6.855769999999999920e-01 -1.604119999999999990e-01 1.421200000000000067e-02 6.850800000000000223e-01 1.606259999999999910e-01 -1.433500000000000052e-02 -6.851180000000000048e-01 -1.612949999999999939e-01 1.424100000000000019e-02 6.860650000000000359e-01 1.610959999999999892e-01 -1.478699999999999980e-02 -6.857830000000000314e-01 -1.605759999999999965e-01 1.457999999999999921e-02 6.851089999999999680e-01 -1.608449999999999880e-01 1.442200000000000079e-02 6.857509999999999994e-01 1.609009999999999885e-01 -1.477900000000000047e-02 -6.850570000000000270e-01 -1.609629999999999950e-01 1.490400000000000058e-02 6.860330000000000039e-01 -1.605860000000000065e-01 1.462899999999999964e-02 6.853430000000000355e-01 1.606069999999999998e-01 -1.410600000000000048e-02 -6.850169999999999870e-01 1.610099999999999865e-01 -1.486999999999999954e-02 -6.851829999999999865e-01 -1.604109999999999980e-01 1.441699999999999926e-02 6.847509999999999986e-01 1.609730000000000050e-01 -1.423100000000000059e-02 -6.851519999999999833e-01 -1.609530000000000127e-01 1.426999999999999970e-02 6.852559999999999762e-01 -1.611329999999999985e-01 1.404200000000000066e-02 6.857349999999999834e-01 -1.609659999999999980e-01 1.460499999999999993e-02 6.850690000000000390e-01 -1.608289999999999997e-01 1.423800000000000066e-02 6.853420000000000067e-01 -1.608819999999999972e-01 1.438700000000000048e-02 6.850540000000000518e-01 1.609690000000000010e-01 -1.499499999999999965e-02 -6.854919999999999902e-01 1.606150000000000078e-01 -1.437500000000000062e-02 -6.853700000000000347e-01 1.611509999999999887e-01 -1.449499999999999920e-02 -6.856790000000000385e-01 1.608269999999999977e-01 -1.438000000000000042e-02 -6.852939999999999587e-01 -1.608310000000000017e-01 1.490900000000000038e-02 6.855430000000000135e-01 1.610370000000000135e-01 -1.456099999999999929e-02 -6.850209999999999910e-01 -1.615560000000000052e-01 1.477299999999999967e-02 6.863280000000000491e-01 -1.609780000000000100e-01 1.428199999999999956e-02 6.858739999999999837e-01 -1.608189999999999897e-01 1.430299999999999974e-02 6.854219999999999757e-01 1.612359999999999904e-01 -1.456099999999999929e-02 -6.850349999999999495e-01 1.609430000000000027e-01 -1.467700000000000081e-02 -6.852449999999999930e-01 -1.607699999999999962e-01 1.470100000000000053e-02 6.855790000000000495e-01 1.604329999999999923e-01 -1.443499999999999991e-02 -6.845259999999999678e-01 1.603430000000000133e-01 -1.444199999999999998e-02 -6.844890000000000141e-01 -1.611100000000000032e-01 1.429799999999999995e-02 6.862209999999999699e-01 -1.610169999999999935e-01 1.445399999999999983e-02 6.856079999999999952e-01 1.610250000000000015e-01 -1.430299999999999974e-02 -6.849870000000000125e-01 1.611249999999999905e-01 -1.483600000000000023e-02 -6.848570000000000491e-01 -1.612419999999999964e-01 1.451099999999999959e-02 6.867820000000000036e-01 -1.608159999999999867e-01 1.441699999999999926e-02 6.859300000000000397e-01 1.605379999999999863e-01 -1.444999999999999930e-02 -6.848950000000000315e-01 1.608400000000000107e-01 -1.416500000000000051e-02 -6.851819999999999578e-01 -1.612989999999999979e-01 1.479899999999999965e-02 6.866860000000000186e-01 -1.607280000000000098e-01 1.487199999999999980e-02 6.855310000000000015e-01 -1.613950000000000107e-01 1.470800000000000059e-02 6.858579999999999677e-01 -1.609490000000000087e-01 1.481599999999999931e-02 6.855919999999999792e-01 1.607379999999999920e-01 -1.462300000000000058e-02 -6.850319999999999743e-01 1.606589999999999963e-01 -1.404799999999999972e-02 -6.856170000000000320e-01 1.610610000000000097e-01 -1.470499999999999932e-02 -6.852989999999999915e-01 1.606420000000000070e-01 -1.431100000000000080e-02 -6.849129999999999940e-01 1.609329999999999927e-01 -1.403500000000000060e-02 -6.851110000000000255e-01 1.611039999999999972e-01 -1.406600000000000038e-02 -6.852970000000000450e-01 -1.612729999999999997e-01 1.487899999999999986e-02 6.861589999999999634e-01 -1.611100000000000032e-01 1.442700000000000059e-02 6.851610000000000200e-01 1.606420000000000070e-01 -1.465999999999999942e-02 -6.850950000000000095e-01 1.614299999999999902e-01 -1.497700000000000073e-02 -6.854390000000000205e-01 -1.611130000000000062e-01 1.401600000000000068e-02 6.862709999999999644e-01 -1.608580000000000010e-01 1.448900000000000014e-02 6.855259999999999687e-01 1.608130000000000115e-01 -1.406499999999999938e-02 -6.848269999999999635e-01 1.609130000000000005e-01 -1.466699999999999948e-02 -6.850850000000000550e-01 4.800000000000000122e-05 -1.041000000000000042e-03 -7.050000000000000060e-04 1.160000000000000007e-04 -5.130000000000000011e-04 4.580000000000000195e-04 1.194171000000000094e+00 5.940069999999999517e-01 -1.031787000000000010e+00 1.194199000000000011e+00 5.952089999999999881e-01 -1.031752000000000002e+00 3.040000000000000167e-04 1.010000000000000020e-04 -1.825999999999999932e-03 -3.649999999999999816e-04 -8.999999999999999754e-04 1.461000000000000059e-03 1.150000000000000035e-04 -1.092000000000000089e-03 -1.097000000000000102e-03 1.193835999999999897e+00 5.937390000000000168e-01 -1.030645000000000033e+00 1.194385999999999948e+00 5.951109999999999456e-01 -1.032146999999999926e+00 1.194603000000000081e+00 5.945030000000000037e-01 -1.031088999999999922e+00 1.330000000000000073e-04 -8.189999999999999581e-04 -1.330000000000000073e-04 -1.193740000000000023e+00 -5.929910000000000458e-01 1.031230000000000091e+00 -1.194364999999999899e+00 -5.928309999999999969e-01 1.032486999999999933e+00 -1.194325000000000081e+00 -5.933450000000000113e-01 1.030628000000000100e+00 7.209999999999999612e-04 -1.510000000000000057e-03 -3.699999999999999947e-04 1.195594000000000046e+00 5.918149999999999800e-01 -1.032580999999999971e+00 1.194666000000000006e+00 5.924059999999999881e-01 -1.032580000000000053e+00 8.109999999999999805e-04 -9.399999999999999719e-04 -1.905000000000000009e-03 4.800000000000000122e-04 -1.518000000000000035e-03 -1.100000000000000039e-04 4.459999999999999989e-04 -6.729999999999999871e-04 -5.130000000000000011e-04 1.194936999999999916e+00 5.936200000000000365e-01 -1.032351000000000019e+00 -1.194344999999999990e+00 -5.930689999999999573e-01 1.031290999999999958e+00 -1.194479000000000068e+00 -5.936010000000000453e-01 1.030561000000000060e+00 1.194646000000000097e+00 5.928649999999999753e-01 -1.032302000000000053e+00 1.194293000000000049e+00 5.934319999999999595e-01 -1.031987999999999905e+00 1.194329999999999892e+00 5.931419999999999471e-01 -1.030478000000000005e+00 1.195249999999999924e+00 5.919950000000000490e-01 -1.032551999999999914e+00 -1.193653999999999993e+00 -5.929539999999999811e-01 1.028385000000000105e+00 -1.194544000000000050e+00 -5.933650000000000313e-01 1.029722999999999944e+00 -1.194280000000000008e+00 -5.928120000000000056e-01 1.028108000000000022e+00 1.194773000000000085e+00 5.932640000000000136e-01 -1.032159000000000049e+00 1.194450999999999929e+00 5.934380000000000210e-01 -1.030334000000000083e+00 -1.194331000000000031e+00 -5.927320000000000366e-01 1.028758999999999979e+00 -1.195059000000000093e+00 -5.928430000000000089e-01 1.027832999999999997e+00 1.195011000000000045e+00 5.928609999999999713e-01 -1.031821000000000099e+00 -5.000000000000000240e-05 -5.469999999999999602e-04 1.062000000000000010e-03 2.449999999999999921e-04 -1.038999999999999993e-03 1.900000000000000105e-04 -1.195089000000000068e+00 -5.919069999999999609e-01 1.029257000000000088e+00 4.040000000000000080e-04 -2.900000000000000017e-05 -1.299000000000000024e-03 -1.195353000000000110e+00 -5.923680000000000057e-01 1.028026000000000106e+00 1.789999999999999870e-04 -1.266999999999999897e-03 -6.539999999999999590e-04 -1.195473999999999926e+00 -5.910490000000000466e-01 1.029123999999999928e+00 3.930000000000000117e-04 -7.590000000000000175e-04 1.054000000000000032e-03 -1.194634999999999891e+00 -5.921640000000000237e-01 1.027538999999999980e+00 -1.194849999999999968e+00 -5.916219999999999812e-01 1.029155999999999960e+00 4.659999999999999971e-04 -9.950000000000000077e-04 2.169999999999999891e-04 6.499999999999999431e-05 -8.999999999999999754e-04 1.363999999999999978e-03 1.194790000000000019e+00 5.922399999999999887e-01 -1.031581000000000081e+00 4.189999999999999931e-04 -1.689999999999999879e-04 -2.399999999999999790e-03 -6.700000000000000226e-05 -1.039999999999999909e-03 1.675000000000000057e-03 1.195181999999999967e+00 5.918569999999999665e-01 -1.031522000000000050e+00 1.195170999999999983e+00 5.924279999999999546e-01 -1.032434999999999992e+00 1.194935000000000080e+00 5.922290000000000054e-01 -1.031253999999999893e+00 4.220000000000000118e-04 2.699999999999999899e-05 -3.440000000000000132e-04 -1.194644000000000039e+00 -5.918759999999999577e-01 1.030332999999999943e+00 9.439999999999999607e-04 -3.959999999999999762e-04 -2.020999999999999793e-03 -1.194549000000000083e+00 -5.909360000000000168e-01 1.029808000000000057e+00 -1.194450999999999929e+00 -5.920499999999999652e-01 1.032097000000000042e+00 1.194310999999999900e+00 5.950050000000000061e-01 -1.031635999999999997e+00 7.259999999999999743e-04 5.980000000000000072e-04 -1.639000000000000049e-03 3.690000000000000246e-04 -4.620000000000000083e-04 -5.220000000000000031e-04 1.195122999999999935e+00 5.934789999999999788e-01 -1.032699999999999951e+00 1.195000000000000062e+00 5.920469999999999899e-01 -1.032610000000000028e+00 -1.193761999999999990e+00 -5.907069999999999821e-01 1.029695000000000027e+00 1.194107000000000030e+00 5.946949999999999736e-01 -1.031987999999999905e+00 1.194711999999999996e+00 5.946099999999999719e-01 -1.030615000000000059e+00 1.195864000000000038e+00 5.930069999999999508e-01 -1.032081000000000026e+00 -1.194679000000000046e+00 -5.922589999999999799e-01 1.029841000000000006e+00 -1.195135999999999976e+00 -5.911129999999999995e-01 1.029500000000000082e+00 -1.194465000000000110e+00 -5.918290000000000495e-01 1.028907999999999934e+00 1.195003000000000037e+00 5.932659999999999600e-01 -1.030791999999999931e+00 -1.195449999999999902e+00 -5.915230000000000210e-01 1.028597999999999901e+00 1.195405000000000051e+00 5.943979999999999819e-01 -1.030817000000000094e+00 -1.195238999999999940e+00 -5.926879999999999926e-01 1.028928000000000065e+00 1.700000000000000122e-04 -1.203000000000000076e-03 -3.220000000000000206e-04 -1.194120999999999988e+00 -5.936820000000000430e-01 1.028202000000000060e+00 5.150000000000000498e-04 -1.789999999999999870e-04 -9.920000000000000432e-04 -1.194857999999999976e+00 -5.930999999999999606e-01 1.030338999999999894e+00 1.269999999999999970e-04 -8.300000000000000086e-04 1.399999999999999979e-05 4.609999999999999840e-04 -2.210000000000000050e-04 -2.222000000000000017e-03 -1.194595000000000073e+00 -5.941009999999999902e-01 1.028189000000000020e+00 4.380000000000000213e-04 6.000000000000000152e-06 -1.907000000000000058e-03 9.100000000000000287e-05 -8.589999999999999546e-04 -5.439999999999999957e-04 1.195297000000000054e+00 5.951809999999999601e-01 -1.032337999999999978e+00 4.719999999999999803e-04 2.719999999999999979e-04 -1.477000000000000014e-03 3.209999999999999963e-04 -6.809999999999999647e-04 1.567999999999999949e-03 1.195821000000000023e+00 5.941229999999999567e-01 -1.032148999999999983e+00 1.194971000000000005e+00 5.943060000000000009e-01 -1.031748000000000109e+00 1.195129000000000108e+00 5.940910000000000357e-01 -1.030890000000000084e+00 9.399999999999999448e-05 -1.150999999999999896e-03 -5.609999999999999752e-04 -1.194890000000000008e+00 -5.930260000000000531e-01 1.032292999999999905e+00 -1.194895999999999958e+00 -5.931870000000000198e-01 1.031336999999999948e+00 6.239999999999999887e-04 -8.859999999999999603e-04 -1.969999999999999963e-03 -1.194469999999999921e+00 -5.929029999999999578e-01 1.030251000000000028e+00 1.194430000000000103e+00 5.925709999999999589e-01 -1.032556999999999947e+00 4.749999999999999990e-04 -1.299000000000000024e-03 -1.804000000000000048e-03 -3.199999999999999855e-05 -1.549000000000000030e-03 -5.410000000000000312e-04 1.194477999999999929e+00 5.921410000000000284e-01 -1.032610000000000028e+00 -1.194452000000000069e+00 -5.925470000000000459e-01 1.032353999999999994e+00 1.194649000000000072e+00 5.920959999999999557e-01 -1.032947999999999977e+00 1.194080000000000030e+00 5.933850000000000513e-01 -1.031992999999999938e+00 1.194444999999999979e+00 5.923450000000000104e-01 -1.031903000000000015e+00 1.193945000000000034e+00 5.933289999999999953e-01 -1.030216000000000021e+00 -1.194466999999999945e+00 -5.928210000000000424e-01 1.027878000000000069e+00 -1.194947999999999899e+00 -5.933230000000000448e-01 1.029571000000000014e+00 -1.194015000000000049e+00 -5.933180000000000121e-01 1.028672000000000031e+00 1.194438000000000111e+00 5.920520000000000227e-01 -1.032307000000000086e+00 -1.194064000000000014e+00 -5.931849999999999623e-01 1.029395000000000060e+00 1.194223999999999952e+00 5.934469999999999468e-01 -1.031657999999999964e+00 -1.194388999999999923e+00 -5.925270000000000259e-01 1.029384999999999994e+00 1.990000000000000124e-04 -4.159999999999999744e-04 8.940000000000000464e-04 2.939999999999999905e-04 -1.659999999999999963e-04 -1.487999999999999956e-03 -1.193675000000000042e+00 -5.920659999999999812e-01 1.027673000000000059e+00 4.850000000000000253e-04 -9.590000000000000000e-04 -5.299999999999999807e-04 -1.194126999999999938e+00 -5.911589999999999900e-01 1.029125999999999985e+00 7.200000000000000453e-04 -6.700000000000000226e-05 -9.009999999999999997e-04 -1.195292000000000021e+00 -5.912899999999999823e-01 1.029703000000000035e+00 1.195702999999999960e+00 5.917630000000000390e-01 -1.031396999999999897e+00 8.440000000000000236e-04 -8.159999999999999936e-04 3.869999999999999742e-04 2.680000000000000090e-04 -3.299999999999999982e-04 -1.874000000000000015e-03 3.849999999999999798e-04 -1.472000000000000001e-03 1.670000000000000043e-03 2.750000000000000166e-04 2.400000000000000061e-05 -1.935000000000000088e-03 1.194776999999999978e+00 5.921920000000000517e-01 -1.031713000000000102e+00 4.960000000000000216e-04 -7.720000000000000083e-04 1.203999999999999992e-03 1.195154000000000050e+00 5.926569999999999894e-01 -1.032559999999999922e+00 1.194811999999999985e+00 5.914190000000000280e-01 -1.031368000000000062e+00 1.195764000000000049e+00 5.921950000000000269e-01 -1.032556000000000029e+00 -1.194182999999999995e+00 -5.917390000000000150e-01 1.030156000000000072e+00 1.194444000000000061e+00 5.933230000000000448e-01 -1.032747999999999999e+00 -1.194862000000000091e+00 -5.922349999999999559e-01 1.032189999999999941e+00 -1.194611000000000089e+00 -5.908780000000000143e-01 1.030068999999999901e+00 3.130000000000000187e-04 -4.049999999999999781e-04 -2.200000000000000133e-03 2.349999999999999930e-04 6.790000000000000245e-04 -1.683999999999999950e-03 1.289999999999999914e-04 1.410000000000000120e-04 -8.779999999999999827e-04 7.900000000000000121e-04 7.810000000000000102e-04 -2.213999999999999822e-03 1.194574000000000025e+00 5.952089999999999881e-01 -1.032057000000000002e+00 3.269999999999999795e-04 -1.900000000000000105e-04 -1.920000000000000049e-03 1.194903999999999966e+00 5.918130000000000335e-01 -1.032435999999999909e+00 -1.194415999999999922e+00 -5.921089999999999964e-01 1.030594999999999928e+00 -1.195348999999999995e+00 -5.925880000000000036e-01 1.032464000000000048e+00 1.195324000000000053e+00 5.936120000000000285e-01 -1.032845000000000013e+00 1.195160000000000000e+00 5.923239999999999617e-01 -1.032561000000000062e+00 1.195451999999999959e+00 5.930090000000000083e-01 -1.031883000000000106e+00 -1.195048000000000110e+00 -5.915569999999999995e-01 1.029590000000000005e+00 1.194409000000000054e+00 5.943089999999999762e-01 -1.030114999999999892e+00 -1.195135999999999976e+00 -5.921880000000000477e-01 1.029719000000000051e+00 -1.194210999999999911e+00 -5.917719999999999647e-01 1.028329999999999966e+00 1.194912999999999892e+00 5.929750000000000298e-01 -1.030833000000000110e+00 -1.194233000000000100e+00 -5.913100000000000023e-01 1.029295000000000071e+00 1.194987999999999939e+00 5.927080000000000126e-01 -1.031743999999999994e+00 -1.194472999999999896e+00 -5.923709999999999809e-01 1.029585999999999890e+00 1.195213000000000081e+00 5.928830000000000489e-01 -1.030720999999999998e+00 -1.194071000000000105e+00 -5.935989999999999878e-01 1.027870000000000061e+00 2.660000000000000146e-04 2.039999999999999984e-04 -1.283000000000000069e-03 -1.194916000000000089e+00 -5.930189999999999628e-01 1.029951000000000061e+00 4.490000000000000176e-04 -2.079999999999999872e-04 -5.969999999999999829e-04 1.879999999999999890e-04 -2.649999999999999903e-04 -2.344999999999999862e-03 8.909999999999999734e-04 -2.689999999999999791e-04 -2.180000000000000080e-03 2.489999999999999809e-04 -9.340000000000000429e-04 -5.839999999999999922e-04 -1.194131999999999971e+00 -5.930469999999999908e-01 1.028569000000000067e+00 -1.194561999999999902e+00 -5.929889999999999883e-01 1.030094999999999983e+00 -1.194582999999999950e+00 -5.925219999999999931e-01 1.028947999999999974e+00