-5.265331404319837315e-06 -1.644199524555395309e-01 3.354330901149007397e-03 -1.005145457182077392e-03 -1.718949037697777840e-03 3.538983443830179092e-03 1.004854707168482096e-03 -1.714950668231636065e-03 3.535065236033588069e-03 -2.177126089990683022e-03 5.483047101330635296e-03 3.201833611053454213e-03 2.164873911109502832e-03 5.489043701560720849e-03 3.202010335922421749e-03 2.875216980428327823e-06 1.073043736041536184e-03 3.084984906554542189e-03 -4.600102766425202827e-03 2.766040137682123506e-03 2.576773465995538248e-03 1.875962893254810046e-06 1.921043708383453558e-03 3.082972843092129760e-03 4.592897471842307712e-03 2.768032854531488670e-03 2.571147784429904035e-03 -4.124520932177456979e-06 -1.086956938793915252e-03 3.037015245522294449e-03 -9.161169128147161975e-04 -2.649586491872951005e-04 2.865966454143466929e-03 9.108831631937824077e-04 -2.699601080763587048e-04 2.864040922029133154e-03 -9.681094142273285281e-04 6.260390237468563702e-04 2.698951704427202548e-03 9.658906703117326169e-04 6.320374810760950911e-04 2.697030373488540876e-03 -6.125366165650696449e-06 -3.495635604436666681e-05 3.078000249035310609e-03 1.828509765615996246e-04 2.270518041310300790e-04 3.664004230157399001e-03 1.875307501062465572e-06 4.090435242245408858e-04 3.069994279882576685e-03 -1.921489040991492556e-04 2.230520552216057491e-04 3.660989016552072990e-03 2.875238395878294880e-06 9.043438415097136687e-06 3.063999991714392440e-03 6.871405907177383431e-06 -4.895524617607164197e-05 3.157000976821625841e-03 -1.812867551376763395e-05 -4.895519824557701961e-05 3.158999958798488529e-03 2.387525478354148774e-05 -7.395660637504552050e-05 3.062002023608493065e-03 -3.012499341457841045e-05 -7.895647902597685173e-05 3.067999895565772656e-03 -5.124913610743002772e-06 -1.849565553013761800e-04 3.064002416433696252e-03 -1.213191609775452667e-07 -6.695777851865396507e-05 2.978000947141808304e-03 -5.124704371640629769e-06 1.340434588442603340e-04 3.064997893726220928e-03 -4.121485175313938742e-06 -7.095771867508464490e-05 2.982000840965739162e-03 -1.798643282981706695e-04 -2.210471561637443027e-04 -3.336004193366334282e-03 4.117918980009653446e-06 9.295896631885873865e-05 -2.894001152958340217e-03 1.851355445351373405e-04 -2.270473994233502667e-04 -3.332989245191884768e-03 2.102931361823801333e-06 8.996418531384717482e-05 -2.526001192208844268e-03 -1.868772013379909637e-04 2.399574570542477542e-04 -3.011011014663369980e-03 1.951227161199246645e-04 2.389571863054077425e-04 -3.008995445122339147e-03 -6.487119277704631601e-05 2.169552632173216220e-04 -3.159005720493393565e-03 7.312868494597642393e-05 2.169551976972382040e-04 -3.156000101018728490e-03 -1.870294769985723464e-06 -9.204518305855562252e-05 -3.186998774124833161e-03 -1.575045306178248991e-02 1.650717458121549880e-02 1.144312460361503539e-02 -8.654630951765361445e-07 -1.100468709973853913e-04 -3.305998478093617309e-03 1.575754691286834763e-02 1.650814991057251296e-02 1.144440762201425453e-02 1.389827921202476001e-06 4.524452844196500539e-02 -3.326064144198962597e-02 1.247093708754349814e-03 1.988966939052372318e-03 -2.262977418566512397e-03 -1.241906328334966289e-03 1.990968902107398408e-03 -2.262078801121398652e-03 -9.818785970248772831e-04 1.679958958414335801e-03 -2.949063803777035413e-03 9.841215618771618958e-04 1.676957362333014257e-03 -2.952983704046731675e-03 2.194685932257960212e-06 4.052933319853825600e-03 -4.703057376661728788e-03 1.012309830748693341e-05 -1.042867305243762409e-06 -3.022999575803549544e-03 2.128710737882321962e-06 -1.004481757612733718e-05 -3.160999773842202831e-03 -4.876816320524606847e-06 3.957116083603792811e-06 -3.025000257503274257e-03 2.130414744574903794e-06 -1.804541304272610093e-05 -3.202999660381051703e-03 2.912715081137361349e-05 2.595571421336640458e-05 -3.121999184814961813e-03 -1.887305275301524385e-05 2.595582268615870695e-05 -3.117001139420463342e-03 -3.887608877723789237e-05 4.895690167841540105e-05 -3.042002279995765102e-03 4.012419855384004709e-05 5.195674057684910809e-05 -3.048999105575310366e-03 6.122784322668068166e-06 6.595726342014476579e-05 -3.014000688605472742e-03 -7.999428963814588520e-05 -4.000193642542128721e-05 -1.410026904264772912e-04 7.300489033314127240e-05 -4.700177266722019000e-05 -1.209963609105041242e-04 -1.200830231498728255e-05 5.800291583815626656e-05 2.049986888489378160e-04 1.200064509568665510e-04 -1.340023765710834610e-04 -1.609932135278960568e-04 9.000970290496924052e-06 9.499968103195952128e-05 -2.200098037941817001e-05 -1.199932496938745867e-04 -1.160022878983881856e-04 -1.680032417253992565e-04 -8.637469560701147712e-09 9.800303403832820329e-05 2.139986103802461498e-04 3.700070248499167036e-05 1.689997725229699910e-04 -1.400088935752026405e-05 -1.899759581258980140e-05 1.579992209044583842e-04 -5.600301373074152510e-05 -9.319745822299352897e-04 1.931992407191771184e-03 -5.870653427265850721e-04 9.410275446703076502e-04 1.945990203393201026e-03 -6.389892710127931166e-04 -1.840304796789015779e-05 3.716615047928936016e-02 1.061247232640182871e-02 1.467720845643953262e-02 1.270391938993231488e-02 -4.874582449843456455e-03 -3.513289772720304195e-08 -2.066988331466038716e-03 8.230293046720271602e-04 -1.468279001880679058e-02 1.269594185412183281e-02 -4.912777900575737364e-03 -2.064892380730855404e-06 3.659023593048607581e-03 1.663948040574919456e-03 1.174010064909501889e-03 9.995578846050107277e-06 -2.469523352688129188e-04 -1.172990955866337094e-03 3.997770983517027597e-06 -2.220478220630428383e-04 -1.900177843041525686e-05 -8.699938964689718404e-05 4.200045973020729678e-05 -8.000765119979291965e-06 -9.299975270413411048e-05 1.700099274939034349e-05 2.200804079299913273e-05 2.399718974597853983e-05 -1.969994442244677596e-04 1.609933935625963122e-04 -2.719979001210884014e-04 1.570104122627459032e-04 -8.989316144630890221e-06 2.269963491528774609e-04 -2.580035846001307040e-04 -1.540056515746322211e-04 -2.489979795689112167e-04 1.339972591274651837e-04 -9.999447163543874364e-06 -7.400020482950884625e-05 -1.499935804007061730e-05 -1.880071550082750866e-04 -8.899738585135725545e-05 1.739936061391885369e-04 1.909939026356490921e-04 -8.999805122947900711e-05 1.480090535436947587e-04 -1.255719233385268162e-02 1.855643003092805055e-02 2.963722559886304564e-02 5.815471460323910346e-05 4.132943698601043258e-04 2.076599652780986363e-02 1.249680881765258093e-02 1.854541000258740427e-02 2.960924597504927674e-02 -2.208378742829121324e-05 4.154304051899925659e-02 2.856410114657694996e-03 1.642191067112919699e-03 1.024280638894882337e-03 1.988505236784353022e-02 -1.606810143223232285e-03 9.832835940095918919e-04 1.991392064705959850e-02 1.611374346274353862e-04 8.330021556322984215e-05 2.118400540033090265e-02 -1.408623254735053053e-04 1.293003811344547787e-04 2.117899245046139106e-02 -1.894780705563911511e-05 3.756331036881423169e-03 2.334794599364083470e-02 -2.283784508621484848e-03 -8.172509136163239214e-05 1.926390817896572044e-02 -1.684910406535487546e-05 -3.547044512919270707e-04 2.084500436219493408e-02 2.311215398290007023e-03 -9.172866087237005277e-05 1.926609543305237565e-02 1.100532962612026174e-05 4.024347402895960685e-03 2.450394341455114366e-02 -8.628228194162609324e-04 8.528717982281740163e-05 2.020796367473111713e-02 8.671778056329469729e-04 1.052856125705209524e-04 2.019303383826222265e-02 -5.918589614499736827e-04 6.802997134089078897e-04 2.110696627347679807e-02 6.021400485059600228e-04 6.652991187800985510e-04 2.113101510681717268e-02 1.107745384716003439e-05 -1.318679165753913968e-03 2.263001916808341646e-02 -4.985848927063655443e-05 -6.770107952228112910e-05 2.108099894916934738e-02 -1.086191526361457928e-05 8.130012339404449145e-05 2.116799842471490944e-02 5.914069152071768171e-05 -7.370088131234999167e-05 2.110100347279010927e-02 6.138917136294732852e-06 5.229981235233072335e-05 2.114699952814403858e-02 1.751405888763057168e-04 3.299084563514883278e-06 2.110500710471733057e-02 -1.758598415231982367e-04 2.529951534869675741e-05 2.111599249977756665e-02 -8.185845623408402833e-05 1.822990022195744564e-04 2.108499410165752541e-02 2.614088352359221615e-05 1.712991445018243527e-04 2.110099865544997483e-02 1.614080059800317675e-05 3.252992232052377437e-04 2.110599606486123977e-02 -4.113764047288074070e-05 -1.281300564602312793e-03 -2.120198352885139734e-02 -4.641646696408773453e-04 -2.302905358888634145e-04 -2.051801565523667450e-02 4.818345480428150632e-04 -2.402910072241068993e-04 -2.049897699155154435e-02 -1.222106671316173804e-03 3.036900101657458639e-04 -2.193205409125305663e-02 1.201894062782774648e-03 3.076878569823440941e-04 -2.194995544060427198e-02 2.886444097415274537e-05 4.396991252141430290e-04 -2.122000507830601457e-02 3.908646467287557168e-04 6.506988275704680014e-04 -2.122099332886507456e-02 2.986531140771356315e-05 -3.203013858928694660e-04 -2.125599426245146362e-02 -3.971370534900756934e-04 6.627000400376343485e-04 -2.117902558706795738e-02 -2.299334084038209366e-06 -1.311382797123332999e-01 -1.972814086027601527e-02 1.571961313248765660e-03 -2.316336563069412279e-03 -2.365190316985584310e-02 -1.566038886969203445e-03 -2.315334035138599117e-03 -2.364703096606906099e-02 -6.490252991924506248e-03 6.572746790689487813e-03 -1.821835749254844747e-02 6.482747727156512596e-03 6.568736377680443710e-03 -1.823582916421911948e-02 -3.131188083183551884e-06 3.055698341871961651e-03 -2.127704347034949442e-02 -5.099102767190301193e-03 9.127694094109141051e-03 -2.185833707064645942e-02 -1.513265515678309502e-05 2.326698663252905162e-03 -2.125503362343059144e-02 5.114897348067873328e-03 9.129686054052814012e-03 -2.186092117622589343e-02 5.185310380673433987e-05 -2.052971214361785327e-04 -2.095399499731627826e-02 -4.415258676984556876e-05 -3.629501886084774277e-05 -2.081100130269294274e-02 -7.152690940863195920e-06 -1.329500530063808764e-05 -2.080800012211279915e-02 3.856455592527539851e-06 1.870181025701686916e-05 -2.103200012766363869e-02 -2.614383415489277644e-05 -3.929808118047920445e-05 -2.102600052698446950e-02 -4.144855353415130050e-06 -9.529775813366049737e-05 -2.100199883719330168e-02 -2.314204790045356518e-05 5.701306820795188299e-06 -2.106900104278129973e-02 -2.714595641412884163e-05 -2.012973856691787971e-04 -2.097699827095318714e-02 4.685833730983090254e-05 -2.229888976406663672e-05 -2.107899779533504991e-02
-4.265282798611719697e-06 -1.643059524421562334e-01 3.355329325603893884e-03 -1.012145860466804465e-03 -1.713948890439355357e-03 3.548983087886108025e-03 1.008854135506257691e-03 -1.716950472874284074e-03 3.549065427259505238e-03 -2.167126491722362602e-03 5.490047235277921781e-03 3.211833919008325478e-03 2.163873583776465721e-03 5.487043815766282258e-03 3.210010323549661142e-03 -6.125147148946712158e-06 1.076043870688357402e-03 3.093984497525225155e-03 -4.604103050684191234e-03 2.767040240058575139e-03 2.583773288927863118e-03 -5.124611894140471285e-06 1.915043912354166778e-03 3.096972643099738312e-03 4.601896984751911376e-03 2.770033017617865804e-03 2.583148122550881724e-03 -3.125175600740987556e-06 -1.090956712731782361e-03 3.053015342939325444e-03 -9.111175643523034126e-04 -2.649584262575501240e-04 2.881966657732848783e-03 9.058823542661435455e-04 -2.629598206061763274e-04 2.884040619161941810e-03 -9.781099404556606227e-04 6.300392158877542777e-04 2.711951240495552931e-03 9.698899710019735255e-04 6.230377189675389378e-04 2.714030663956012654e-03 -1.259856025356256645e-07 -4.595614807430423393e-05 3.093000649301871647e-03 1.888503234560361078e-04 2.250520262779805776e-04 3.680004502823158719e-03 -8.125579729815425299e-06 4.200438439648915062e-04 3.091993716698216745e-03 -1.881498759176126968e-04 2.300523923560041442e-04 3.684989080168822595e-03 -1.263520651144104240e-07 6.043993698407203333e-06 3.102999912048875174e-03 9.869733999528256237e-06 -5.195466723514777994e-05 3.198001141479355804e-03 -1.713038578987751209e-05 -4.895460356116792194e-05 3.200999999480296215e-03 1.987362673683211773e-05 -7.295603613134716561e-05 3.102001846510141561e-03 -2.612641316228200220e-05 -7.195598593582944993e-05 3.102999959172296658e-03 -1.126704547447615859e-06 -1.839559346104656487e-04 3.108002565098434960e-03 -1.229072737379893545e-07 -6.695722558463481006e-05 3.017000947105554290e-03 -4.126373926910495691e-06 1.340440393508740601e-04 3.105997934408958293e-03 -6.123074069989069930e-06 -7.195716417497235247e-05 3.021000773665545938e-03 -1.768628631339918937e-04 -2.220476689132650395e-04 -3.372004056992552231e-03 7.119059944615258175e-06 9.395856699149930777e-05 -2.922001044947521858e-03 1.771369314010533898e-04 -2.240478752047257813e-04 -3.366989613460377902e-03 1.104319005507537240e-06 9.396370405139771583e-05 -2.560001289609143207e-03 -1.858760627224470487e-04 2.379570592931830601e-04 -3.039010945560963271e-03 1.941239330445134620e-04 2.329567617551478486e-04 -3.038995400748721598e-03 -6.586984820492307606e-05 2.179547961329700084e-04 -3.192005775361331493e-03 7.613011409075608009e-05 2.219546991249079593e-04 -3.191000049712456200e-03 -1.868828819745313651e-06 -9.204569345918868972e-05 -3.222998774091367750e-03 -1.576145308447201437e-02 1.653017460400393185e-02 1.144412382959618391e-02 3.135432759986113654e-06 -1.100471860408679987e-04 -3.327998315189761424e-03 1.576554697160473945e-02 1.653114989012843469e-02 1.144340762169343377e-02 3.390325188932170624e-06 4.525552827026436270e-02 -3.327264151649217405e-02 1.237094325843831732e-03 1.996966734214597299e-03 -2.277977939183187858e-03 -1.231905674459100051e-03 1.993968667432408862e-03 -2.278078436431304078e-03 -9.778778319515428561e-04 1.668958685905348044e-03 -2.968063484920571097e-03 9.831220834131764418e-04 1.666957178805678758e-03 -2.965983602977863114e-03 3.195790879123277192e-06 4.059932936269649087e-03 -4.730057435160122531e-03 1.912375453490343963e-05 4.956898802460154485e-06 -3.038999294367596832e-03 1.129446848125875707e-06 -6.045071993850964334e-06 -3.178999871257374901e-03 -1.087608804186892289e-05 -2.043134418130940802e-06 -3.043000416745067407e-03 4.131301982087996068e-06 -2.904572651910747552e-05 -3.224999422963500256e-03 4.112758776063211736e-05 1.195554886307490147e-05 -3.132998497665834010e-03 -3.687220621975415214e-05 1.495553904749581336e-05 -3.138001716420863677e-03 -3.387522110656886204e-05 6.495660002811900775e-05 -3.063002303216203447e-03 4.212465823502367570e-05 6.695658305359562562e-05 -3.059999236789834147e-03 1.234342939376760832e-07 6.395704127359750669e-05 -3.030000904560179072e-03 -6.999835624542658028e-05 -3.300052647655220294e-05 -4.100238255527021553e-05 6.900160056772631318e-05 -3.600062113492007632e-05 -3.999667982460419785e-05 -3.012074472676686225e-06 7.700422732424422334e-05 2.979987858726393184e-04 1.160025942339853739e-04 -1.190010265500514991e-04 -6.599358916606438150e-05 4.996124513853169482e-06 9.500137132159237787e-05 9.699885662655515362e-05 -1.169971142582964190e-04 -1.110009433573212018e-04 -7.300319053997510665e-05 -5.010809774257072423e-06 8.000378937827784444e-05 2.669986619264642772e-04 2.799856463586501931e-05 1.430005168179154015e-04 3.799911272833071863e-05 -1.600103203710869873e-05 1.380004094922966727e-04 2.799739190899490425e-05 -9.349685884282306174e-04 1.941990325403833212e-03 -7.340656065301220251e-04 9.340316191108350699e-04 1.948988791094335461e-03 -7.389895984990813580e-04 -3.396357350300086703e-06 3.692214807152160300e-02 1.044347639674598517e-02 1.459021390286783376e-02 1.258691752988460449e-02 -5.010584333632752720e-03 -5.028403768522991293e-06 -2.053990666888603264e-03 6.580289169102302056e-04 -1.458378583487879646e-02 1.257894028794849343e-02 -5.017772210315542963e-03 -6.055014040469206752e-08 3.640022074460426676e-03 1.556948391493594760e-03 1.181013032823576177e-03 3.994538386620368362e-06 -3.199519650884136580e-04 -1.179987163337395872e-03 1.099645792881565836e-05 -3.150482062668923024e-04 -2.200090059163700758e-05 -1.099996992070880364e-04 2.000066367666485876e-05 1.699925912508248649e-05 -1.139997864547163367e-04 1.600230850463066898e-05 2.010224847051493532e-06 4.996439806867463286e-06 -2.509999892137858768e-04 1.449937357976300179e-04 -2.509980010176297719e-04 1.490094630035319943e-04 -2.989914425031668101e-06 2.429965571202180304e-04 -2.430035671331834781e-04 -1.440059358452327706e-04 -2.479978881544061035e-04 1.409976521517057038e-04 -9.999726240611868703e-07 -6.900002756563858406e-05 -1.999062453312682755e-06 -1.850057971187201464e-04 -7.099785606940733624e-05 1.409934731326762227e-04 1.829948086872198532e-04 -7.699835687831828963e-05 1.260085434864119250e-04 -1.239118135192571711e-02 1.848842605877500100e-02 2.936623332286416796e-02 1.165491618757799491e-06 4.992906857220348171e-04 2.050299298767817649e-02 1.239581810127931422e-02 1.849240683496022192e-02 2.938024261387765790e-02 -3.082309915076322942e-06 4.119403989451231318e-02 2.813415836433289050e-03 1.664199118801004077e-03 9.062777861217902057e-04 1.968505493686426369e-02 -1.655801118852560320e-03 9.112804707352961100e-04 1.969091967274416016e-02 1.481435443563475902e-04 1.372981132452269157e-04 2.103500410549911936e-02 -1.528565759893760559e-04 1.392983914602543422e-04 2.103799182016461919e-02 7.058551617444838617e-06 3.712328790614087201e-03 2.319094767635050333e-02 -2.317779387195306913e-03 -1.457268653133222914e-04 1.913690770195170671e-02 -5.843677257709260110e-06 -3.927063597256326812e-04 2.071100534900387549e-02 2.326220684909625046e-03 -1.527305299023554847e-04 1.913509690883049424e-02 1.200986528502054833e-05 3.992345814203110757e-03 2.439194390906453819e-02 -8.458184959441767022e-04 1.462856778372200958e-04 2.010296350223962289e-02 8.421820727475560478e-04 1.462841576505737994e-04 2.008903223904932173e-02 -6.428539402071769583e-04 6.962980094712691807e-04 2.098396396998351496e-02 6.501457658387936166e-04 6.862970963028151069e-04 2.099101676381513737e-02 -1.916085607837403612e-06 -1.284681395670058757e-03 2.247201815681526896e-02 -7.485317986923031917e-05 -4.770290306279068298e-05 2.095099764771364906e-02 4.143534264344561994e-06 7.229821182543077649e-05 2.103399916325211436e-02 6.914592023498835206e-05 -5.270270390223509506e-05 2.097300358238457160e-02 2.146832654044284583e-06 7.229706498999865540e-05 2.095299908188570648e-02 1.461462788729124399e-04 4.129713655301708430e-05 2.096600538518685053e-02 -1.448536417947725904e-04 3.829733604961016598e-05 2.096399357795432697e-02 -3.785222522346371539e-05 1.312967843923990268e-04 2.093099661658407232e-02 2.314740902195625878e-05 1.322968642296909936e-04 2.093999908636985999e-02 1.461561728179039777e-07 3.002973642667085274e-04 2.097399576789441347e-02 2.851663230451934823e-06 -1.264296870295677144e-03 -2.093898197840041511e-02 -4.321785100515811249e-04 -2.242857404949217669e-04 -2.017801443755208243e-02 4.268214492986976646e-04 -2.232863989109251559e-04 -2.017697947251966342e-02 -1.226117293208492517e-03 2.596936995289606583e-04 -2.167205363055656545e-02 1.219882855108978892e-03 2.436917276107947302e-04 -2.167595380050680101e-02 6.852804968648989102e-06 3.487031689431154772e-04 -2.093600468425227054e-02 4.148538533605079293e-04 6.997025800671871718e-04 -2.095499304652233274e-02 -1.146713701591552148e-06 -2.322971508236371780e-04 -2.095899677271712350e-02 -4.021463566182336227e-04 6.907032906649306862e-04 -2.095002618786246870e-02 2.692413985391058657e-06 -1.304962766680869968e-01 -1.951314975899576948e-02 1.513951820639707372e-03 -2.322333214228710935e-03 -2.341890544681522399e-02 -1.513048103243753518e-03 -2.332330872453929060e-03 -2.342102856705206154e-02 -6.481261015504598787e-03 6.570749576668409933e-03 -1.802135709788838663e-02 6.488738856277002399e-03 6.576739463741048883e-03 -1.801782903351877366e-02 -9.141190491972381283e-06 3.126701848478235547e-03 -2.103004472152542048e-02 -5.136114220710666541e-03 9.061698092869352808e-03 -2.157833764184585029e-02 2.858002517308378564e-06 2.304701895876330297e-03 -2.102603257875735460e-02 5.135885566381962787e-03 9.060690120821914689e-03 -2.157291934309006620e-02 6.849182131221772792e-06 -1.692957109588304611e-04 -2.085699734024423421e-02 -2.615643567523866838e-05 -1.129368606673933189e-05 -2.071600092425001857e-02 1.684348441456407923e-05 -9.293691380184935374e-06 -2.071399920161080821e-02 2.584997312498405595e-05 8.704047301572303283e-06 -2.087299909017508587e-02 -3.714975039619201528e-05 -2.296002613128488726e-06 -2.088000149962680047e-02 8.495752902381550944e-07 -8.329581969188623364e-05 -2.086499880384956249e-02 -1.714655697362373131e-05 -3.229713831586096122e-05 -2.095900025980343417e-02 -1.150711396074051955e-06 -2.412957613987842581e-04 -2.086099664520835520e-02 1.685396845122937983e-05 -3.729734924856591821e-05 -2.097199880439359898e-02