-4.702366691099999798e+02
-4.702366697100000010e+02
-4.702366708100000210e+02
-4.702366724600000225e+02
-4.702366746800000215e+02
-4.702366773599999874e+02
