9.439900659999999277e+00 0.000000000000000000e+00 0.000000000000000000e+00 0.000000000000000000e+00 1.635038826999999984e+01 0.000000000000000000e+00 0.000000000000000000e+00 0.000000000000000000e+00 2.086160534000000055e+01
9.439900659999999277e+00 0.000000000000000000e+00 0.000000000000000000e+00 0.000000000000000000e+00 1.635038826999999984e+01 0.000000000000000000e+00 0.000000000000000000e+00 0.000000000000000000e+00 2.086160534000000055e+01
9.439900659999999277e+00 0.000000000000000000e+00 0.000000000000000000e+00 0.000000000000000000e+00 1.635038826999999984e+01 0.000000000000000000e+00 0.000000000000000000e+00 0.000000000000000000e+00 2.086160534000000055e+01
9.439900659999999277e+00 0.000000000000000000e+00 0.000000000000000000e+00 0.000000000000000000e+00 1.635038826999999984e+01 0.000000000000000000e+00 0.000000000000000000e+00 0.000000000000000000e+00 2.086160534000000055e+01
9.439900659999999277e+00 0.000000000000000000e+00 0.000000000000000000e+00 0.000000000000000000e+00 1.635038826999999984e+01 0.000000000000000000e+00 0.000000000000000000e+00 0.000000000000000000e+00 2.086160534000000055e+01
