1.200000000000000030e-04 1.634991000000000128e+01 4.720419999999999838e+00 1.573430000000000106e+00 2.724590000000000067e+00 4.720419999999999838e+00 1.499999999999999869e-04 3.633809999999999985e+00 2.206230000000000135e+00 1.573469999999999924e+00 9.087499999999999467e-01 2.206230000000000135e+00 3.146749999999999936e+00 1.634991000000000128e+01 4.720419999999999838e+00 4.720069999999999766e+00 2.724590000000000067e+00 4.720419999999999838e+00 3.146780000000000133e+00 3.633809999999999985e+00 2.206230000000000135e+00 4.720100000000000406e+00 9.087499999999999467e-01 2.206230000000000135e+00 6.293379999999999974e+00 1.634991000000000128e+01 4.720419999999999838e+00 7.866699999999999804e+00 2.724590000000000067e+00 4.720419999999999838e+00 6.293420000000000236e+00 3.633809999999999985e+00 2.206230000000000135e+00 7.866729999999999556e+00 9.087499999999999467e-01 2.206230000000000135e+00 1.200000000000000030e-04 5.449650000000000105e+00 4.720419999999999838e+00 1.573430000000000106e+00 8.174720000000000653e+00 4.720419999999999838e+00 1.499999999999999869e-04 9.083940000000000126e+00 2.206230000000000135e+00 1.573469999999999924e+00 6.358880000000000088e+00 2.206230000000000135e+00 3.146749999999999936e+00 5.449650000000000105e+00 4.720419999999999838e+00 4.720069999999999766e+00 8.174720000000000653e+00 4.720419999999999838e+00 3.146780000000000133e+00 9.083940000000000126e+00 2.206230000000000135e+00 4.720100000000000406e+00 6.358880000000000088e+00 2.206230000000000135e+00 6.293379999999999974e+00 5.449650000000000105e+00 4.720419999999999838e+00 7.866699999999999804e+00 8.174720000000000653e+00 4.720419999999999838e+00 6.293420000000000236e+00 9.083940000000000126e+00 2.206230000000000135e+00 7.866729999999999556e+00 6.358880000000000088e+00 2.206230000000000135e+00 1.200000000000000030e-04 1.089977999999999980e+01 4.720419999999999838e+00 1.573430000000000106e+00 1.362485000000000035e+01 4.720419999999999838e+00 1.499999999999999869e-04 1.453406999999999982e+01 2.206230000000000135e+00 1.573469999999999924e+00 1.180901000000000067e+01 2.206230000000000135e+00 3.146749999999999936e+00 1.089977999999999980e+01 4.720419999999999838e+00 4.720069999999999766e+00 1.362485000000000035e+01 4.720419999999999838e+00 3.146780000000000133e+00 1.453406999999999982e+01 2.206230000000000135e+00 4.720100000000000406e+00 1.180901000000000067e+01 2.206230000000000135e+00 6.293379999999999974e+00 1.089977999999999980e+01 4.720419999999999838e+00 7.866699999999999804e+00 1.362485000000000035e+01 4.720419999999999838e+00 6.293420000000000236e+00 1.453406999999999982e+01 2.206230000000000135e+00 7.866729999999999556e+00 1.180901000000000067e+01 2.206230000000000135e+00 1.200000000000000030e-04 1.634991000000000128e+01 1.167428999999999917e+01 1.573430000000000106e+00 2.724590000000000067e+00 1.167428999999999917e+01 1.499999999999999869e-04 3.633809999999999985e+00 9.160099999999999909e+00 1.573469999999999924e+00 9.087499999999999467e-01 9.160099999999999909e+00 3.146749999999999936e+00 1.634991000000000128e+01 1.167428999999999917e+01 4.720069999999999766e+00 2.724590000000000067e+00 1.167428999999999917e+01 3.146780000000000133e+00 3.633809999999999985e+00 9.160099999999999909e+00 4.720100000000000406e+00 9.087499999999999467e-01 9.160099999999999909e+00 6.293379999999999974e+00 1.634991000000000128e+01 1.167428999999999917e+01 7.866699999999999804e+00 2.724590000000000067e+00 1.167428999999999917e+01 6.293420000000000236e+00 3.633809999999999985e+00 9.160099999999999909e+00 7.866729999999999556e+00 9.087499999999999467e-01 9.160099999999999909e+00 1.200000000000000030e-04 5.449650000000000105e+00 1.167428999999999917e+01 1.573430000000000106e+00 8.174720000000000653e+00 1.167428999999999917e+01 1.499999999999999869e-04 9.083940000000000126e+00 9.160099999999999909e+00 1.573469999999999924e+00 6.358880000000000088e+00 9.160099999999999909e+00 3.146749999999999936e+00 5.449650000000000105e+00 1.167428999999999917e+01 4.720069999999999766e+00 8.174720000000000653e+00 1.167428999999999917e+01 3.146780000000000133e+00 9.083940000000000126e+00 9.160099999999999909e+00 4.720100000000000406e+00 6.358880000000000088e+00 9.160099999999999909e+00 6.293379999999999974e+00 5.449650000000000105e+00 1.167428999999999917e+01 7.866699999999999804e+00 8.174720000000000653e+00 1.167428999999999917e+01 6.293420000000000236e+00 9.083940000000000126e+00 9.160099999999999909e+00 7.866729999999999556e+00 6.358880000000000088e+00 9.160099999999999909e+00 1.200000000000000030e-04 1.089977999999999980e+01 1.167428999999999917e+01 1.573430000000000106e+00 1.362485000000000035e+01 1.167428999999999917e+01 1.499999999999999869e-04 1.453406999999999982e+01 9.160099999999999909e+00 1.573469999999999924e+00 1.180901000000000067e+01 9.160099999999999909e+00 3.146749999999999936e+00 1.089977999999999980e+01 1.167428999999999917e+01 4.720069999999999766e+00 1.362485000000000035e+01 1.167428999999999917e+01 3.146780000000000133e+00 1.453406999999999982e+01 9.160099999999999909e+00 4.720100000000000406e+00 1.180901000000000067e+01 9.160099999999999909e+00 6.293379999999999974e+00 1.089977999999999980e+01 1.167428999999999917e+01 7.866699999999999804e+00 1.362485000000000035e+01 1.167428999999999917e+01 6.293420000000000236e+00 1.453406999999999982e+01 9.160099999999999909e+00 7.866729999999999556e+00 1.180901000000000067e+01 9.160099999999999909e+00 1.200000000000000030e-04 1.634991000000000128e+01 1.862816000000000116e+01 1.573430000000000106e+00 2.724590000000000067e+00 1.862816000000000116e+01 1.499999999999999869e-04 3.633809999999999985e+00 1.611396999999999835e+01 1.573469999999999924e+00 9.087499999999999467e-01 1.611396999999999835e+01 3.146749999999999936e+00 1.634991000000000128e+01 1.862816000000000116e+01 4.720069999999999766e+00 2.724590000000000067e+00 1.862816000000000116e+01 3.146780000000000133e+00 3.633809999999999985e+00 1.611396999999999835e+01 4.720100000000000406e+00 9.087499999999999467e-01 1.611396999999999835e+01 6.293379999999999974e+00 1.634991000000000128e+01 1.862816000000000116e+01 7.866699999999999804e+00 2.724590000000000067e+00 1.862816000000000116e+01 6.293420000000000236e+00 3.633809999999999985e+00 1.611396999999999835e+01 7.866729999999999556e+00 9.087499999999999467e-01 1.611396999999999835e+01 1.200000000000000030e-04 5.449650000000000105e+00 1.862816000000000116e+01 1.573430000000000106e+00 8.174720000000000653e+00 1.862816000000000116e+01 1.499999999999999869e-04 9.083940000000000126e+00 1.611396999999999835e+01 1.573469999999999924e+00 6.358880000000000088e+00 1.611396999999999835e+01 3.146749999999999936e+00 5.449650000000000105e+00 1.862816000000000116e+01 4.720069999999999766e+00 8.174720000000000653e+00 1.862816000000000116e+01 3.146780000000000133e+00 9.083940000000000126e+00 1.611396999999999835e+01 4.720100000000000406e+00 6.358880000000000088e+00 1.611396999999999835e+01 6.293379999999999974e+00 5.449650000000000105e+00 1.862816000000000116e+01 7.866699999999999804e+00 8.174720000000000653e+00 1.862816000000000116e+01 6.293420000000000236e+00 9.083940000000000126e+00 1.611396999999999835e+01 7.866729999999999556e+00 6.358880000000000088e+00 1.611396999999999835e+01 1.200000000000000030e-04 1.089977999999999980e+01 1.862816000000000116e+01 1.573430000000000106e+00 1.362485000000000035e+01 1.862816000000000116e+01 1.499999999999999869e-04 1.453406999999999982e+01 1.611396999999999835e+01 1.573469999999999924e+00 1.180901000000000067e+01 1.611396999999999835e+01 3.146749999999999936e+00 1.089977999999999980e+01 1.862816000000000116e+01 4.720069999999999766e+00 1.362485000000000035e+01 1.862816000000000116e+01 3.146780000000000133e+00 1.453406999999999982e+01 1.611396999999999835e+01 4.720100000000000406e+00 1.180901000000000067e+01 1.611396999999999835e+01 6.293379999999999974e+00 1.089977999999999980e+01 1.862816000000000116e+01 7.866699999999999804e+00 1.362485000000000035e+01 1.862816000000000116e+01 6.293420000000000236e+00 1.453406999999999982e+01 1.611396999999999835e+01 7.866729999999999556e+00 1.180901000000000067e+01 1.611396999999999835e+01 1.299999999999999886e-04 1.816659999999999942e+00 3.463330000000000020e+00 1.000000000000000048e-04 3.633090000000000153e+00 5.734899999999999665e+00 1.573469999999999924e+00 2.725299999999999834e+00 1.191769999999999996e+00 1.499999999999999869e-04 2.400000000000000061e-04 1.191769999999999996e+00 1.573439999999999950e+00 4.541730000000000267e+00 3.463330000000000020e+00 1.573420000000000041e+00 9.080200000000000493e-01 5.734899999999999665e+00 3.146760000000000002e+00 1.816659999999999942e+00 3.463330000000000020e+00 3.146739999999999871e+00 3.633090000000000153e+00 5.734899999999999665e+00 4.720100000000000406e+00 2.725299999999999834e+00 1.191769999999999996e+00 3.146790000000000198e+00 2.400000000000000061e-04 1.191769999999999996e+00 4.720080000000000275e+00 4.541730000000000267e+00 3.463330000000000020e+00 4.720049999999999635e+00 9.080200000000000493e-01 5.734899999999999665e+00 6.293389999999999596e+00 1.816659999999999942e+00 3.463330000000000020e+00 6.293370000000000353e+00 3.633090000000000153e+00 5.734899999999999665e+00 7.866740000000000066e+00 2.725299999999999834e+00 1.191769999999999996e+00 6.293420000000000236e+00 2.400000000000000061e-04 1.191769999999999996e+00 7.866710000000000313e+00 4.541730000000000267e+00 3.463330000000000020e+00 7.866690000000000182e+00 9.080200000000000493e-01 5.734899999999999665e+00 1.299999999999999886e-04 7.266790000000000305e+00 3.463330000000000020e+00 1.000000000000000048e-04 9.083220000000000738e+00 5.734899999999999665e+00 1.573469999999999924e+00 8.175430000000000419e+00 1.191769999999999996e+00 1.499999999999999869e-04 5.450370000000000381e+00 1.191769999999999996e+00 1.573439999999999950e+00 9.991860000000000852e+00 3.463330000000000020e+00 1.573420000000000041e+00 6.358150000000000190e+00 5.734899999999999665e+00 3.146760000000000002e+00 7.266790000000000305e+00 3.463330000000000020e+00 3.146739999999999871e+00 9.083220000000000738e+00 5.734899999999999665e+00 4.720100000000000406e+00 8.175430000000000419e+00 1.191769999999999996e+00 3.146790000000000198e+00 5.450370000000000381e+00 1.191769999999999996e+00 4.720080000000000275e+00 9.991860000000000852e+00 3.463330000000000020e+00 4.720049999999999635e+00 6.358150000000000190e+00 5.734899999999999665e+00 6.293389999999999596e+00 7.266790000000000305e+00 3.463330000000000020e+00 6.293370000000000353e+00 9.083220000000000738e+00 5.734899999999999665e+00 7.866740000000000066e+00 8.175430000000000419e+00 1.191769999999999996e+00 6.293420000000000236e+00 5.450370000000000381e+00 1.191769999999999996e+00 7.866710000000000313e+00 9.991860000000000852e+00 3.463330000000000020e+00 7.866690000000000182e+00 6.358150000000000190e+00 5.734899999999999665e+00 1.299999999999999886e-04 1.271692000000000000e+01 3.463330000000000020e+00 1.000000000000000048e-04 1.453335000000000043e+01 5.734899999999999665e+00 1.573469999999999924e+00 1.362556000000000012e+01 1.191769999999999996e+00 1.499999999999999869e-04 1.090049999999999919e+01 1.191769999999999996e+00 1.573439999999999950e+00 1.544199000000000055e+01 3.463330000000000020e+00 1.573420000000000041e+00 1.180827999999999989e+01 5.734899999999999665e+00 3.146760000000000002e+00 1.271692000000000000e+01 3.463330000000000020e+00 3.146739999999999871e+00 1.453335000000000043e+01 5.734899999999999665e+00 4.720100000000000406e+00 1.362556000000000012e+01 1.191769999999999996e+00 3.146790000000000198e+00 1.090049999999999919e+01 1.191769999999999996e+00 4.720080000000000275e+00 1.544199000000000055e+01 3.463330000000000020e+00 4.720049999999999635e+00 1.180827999999999989e+01 5.734899999999999665e+00 6.293389999999999596e+00 1.271692000000000000e+01 3.463330000000000020e+00 6.293370000000000353e+00 1.453335000000000043e+01 5.734899999999999665e+00 7.866740000000000066e+00 1.362556000000000012e+01 1.191769999999999996e+00 6.293420000000000236e+00 1.090049999999999919e+01 1.191769999999999996e+00 7.866710000000000313e+00 1.544199000000000055e+01 3.463330000000000020e+00 7.866690000000000182e+00 1.180827999999999989e+01 5.734899999999999665e+00 1.299999999999999886e-04 1.816659999999999942e+00 1.041719999999999935e+01 1.000000000000000048e-04 3.633090000000000153e+00 1.268876999999999988e+01 1.573469999999999924e+00 2.725299999999999834e+00 8.145640000000000214e+00 1.499999999999999869e-04 2.400000000000000061e-04 8.145640000000000214e+00 1.573439999999999950e+00 4.541730000000000267e+00 1.041719999999999935e+01 1.573420000000000041e+00 9.080200000000000493e-01 1.268876999999999988e+01 3.146760000000000002e+00 1.816659999999999942e+00 1.041719999999999935e+01 3.146739999999999871e+00 3.633090000000000153e+00 1.268876999999999988e+01 4.720100000000000406e+00 2.725299999999999834e+00 8.145640000000000214e+00 3.146790000000000198e+00 2.400000000000000061e-04 8.145640000000000214e+00 4.720080000000000275e+00 4.541730000000000267e+00 1.041719999999999935e+01 4.720049999999999635e+00 9.080200000000000493e-01 1.268876999999999988e+01 6.293389999999999596e+00 1.816659999999999942e+00 1.041719999999999935e+01 6.293370000000000353e+00 3.633090000000000153e+00 1.268876999999999988e+01 7.866740000000000066e+00 2.725299999999999834e+00 8.145640000000000214e+00 6.293420000000000236e+00 2.400000000000000061e-04 8.145640000000000214e+00 7.866710000000000313e+00 4.541730000000000267e+00 1.041719999999999935e+01 7.866690000000000182e+00 9.080200000000000493e-01 1.268876999999999988e+01 1.299999999999999886e-04 7.266790000000000305e+00 1.041719999999999935e+01 1.000000000000000048e-04 9.083220000000000738e+00 1.268876999999999988e+01 1.573469999999999924e+00 8.175430000000000419e+00 8.145640000000000214e+00 1.499999999999999869e-04 5.450370000000000381e+00 8.145640000000000214e+00 1.573439999999999950e+00 9.991860000000000852e+00 1.041719999999999935e+01 1.573420000000000041e+00 6.358150000000000190e+00 1.268876999999999988e+01 3.146760000000000002e+00 7.266790000000000305e+00 1.041719999999999935e+01 3.146739999999999871e+00 9.083220000000000738e+00 1.268876999999999988e+01 4.720100000000000406e+00 8.175430000000000419e+00 8.145640000000000214e+00 3.146790000000000198e+00 5.450370000000000381e+00 8.145640000000000214e+00 4.720080000000000275e+00 9.991860000000000852e+00 1.041719999999999935e+01 4.720049999999999635e+00 6.358150000000000190e+00 1.268876999999999988e+01 6.293389999999999596e+00 7.266790000000000305e+00 1.041719999999999935e+01 6.293370000000000353e+00 9.083220000000000738e+00 1.268876999999999988e+01 7.866740000000000066e+00 8.175430000000000419e+00 8.145640000000000214e+00 6.293420000000000236e+00 5.450370000000000381e+00 8.145640000000000214e+00 7.866710000000000313e+00 9.991860000000000852e+00 1.041719999999999935e+01 7.866690000000000182e+00 6.358150000000000190e+00 1.268876999999999988e+01 1.299999999999999886e-04 1.271692000000000000e+01 1.041719999999999935e+01 1.000000000000000048e-04 1.453335000000000043e+01 1.268876999999999988e+01 1.573469999999999924e+00 1.362556000000000012e+01 8.145640000000000214e+00 1.499999999999999869e-04 1.090049999999999919e+01 8.145640000000000214e+00 1.573439999999999950e+00 1.544199000000000055e+01 1.041719999999999935e+01 1.573420000000000041e+00 1.180827999999999989e+01 1.268876999999999988e+01 3.146760000000000002e+00 1.271692000000000000e+01 1.041719999999999935e+01 3.146739999999999871e+00 1.453335000000000043e+01 1.268876999999999988e+01 4.720100000000000406e+00 1.362556000000000012e+01 8.145640000000000214e+00 3.146790000000000198e+00 1.090049999999999919e+01 8.145640000000000214e+00 4.720080000000000275e+00 1.544199000000000055e+01 1.041719999999999935e+01 4.720049999999999635e+00 1.180827999999999989e+01 1.268876999999999988e+01 6.293389999999999596e+00 1.271692000000000000e+01 1.041719999999999935e+01 6.293370000000000353e+00 1.453335000000000043e+01 1.268876999999999988e+01 7.866740000000000066e+00 1.362556000000000012e+01 8.145640000000000214e+00 6.293420000000000236e+00 1.090049999999999919e+01 8.145640000000000214e+00 7.866710000000000313e+00 1.544199000000000055e+01 1.041719999999999935e+01 7.866690000000000182e+00 1.180827999999999989e+01 1.268876999999999988e+01 1.299999999999999886e-04 1.816659999999999942e+00 1.737106999999999957e+01 1.000000000000000048e-04 3.633090000000000153e+00 1.964264000000000010e+01 1.573469999999999924e+00 2.725299999999999834e+00 1.509951000000000043e+01 1.499999999999999869e-04 2.400000000000000061e-04 1.509951000000000043e+01 1.573439999999999950e+00 4.541730000000000267e+00 1.737106999999999957e+01 1.573420000000000041e+00 9.080200000000000493e-01 1.964264000000000010e+01 3.146760000000000002e+00 1.816659999999999942e+00 1.737106999999999957e+01 3.146739999999999871e+00 3.633090000000000153e+00 1.964264000000000010e+01 4.720100000000000406e+00 2.725299999999999834e+00 1.509951000000000043e+01 3.146790000000000198e+00 2.400000000000000061e-04 1.509951000000000043e+01 4.720080000000000275e+00 4.541730000000000267e+00 1.737106999999999957e+01 4.720049999999999635e+00 9.080200000000000493e-01 1.964264000000000010e+01 6.293389999999999596e+00 1.816659999999999942e+00 1.737106999999999957e+01 6.293370000000000353e+00 3.633090000000000153e+00 1.964264000000000010e+01 7.866740000000000066e+00 2.725299999999999834e+00 1.509951000000000043e+01 6.293420000000000236e+00 2.400000000000000061e-04 1.509951000000000043e+01 7.866710000000000313e+00 4.541730000000000267e+00 1.737106999999999957e+01 7.866690000000000182e+00 9.080200000000000493e-01 1.964264000000000010e+01 1.299999999999999886e-04 7.266790000000000305e+00 1.737106999999999957e+01 1.000000000000000048e-04 9.083220000000000738e+00 1.964264000000000010e+01 1.573469999999999924e+00 8.175430000000000419e+00 1.509951000000000043e+01 1.499999999999999869e-04 5.450370000000000381e+00 1.509951000000000043e+01 1.573439999999999950e+00 9.991860000000000852e+00 1.737106999999999957e+01 1.573420000000000041e+00 6.358150000000000190e+00 1.964264000000000010e+01 3.146760000000000002e+00 7.266790000000000305e+00 1.737106999999999957e+01 3.146739999999999871e+00 9.083220000000000738e+00 1.964264000000000010e+01 4.720100000000000406e+00 8.175430000000000419e+00 1.509951000000000043e+01 3.146790000000000198e+00 5.450370000000000381e+00 1.509951000000000043e+01 4.720080000000000275e+00 9.991860000000000852e+00 1.737106999999999957e+01 4.720049999999999635e+00 6.358150000000000190e+00 1.964264000000000010e+01 6.293389999999999596e+00 7.266790000000000305e+00 1.737106999999999957e+01 6.293370000000000353e+00 9.083220000000000738e+00 1.964264000000000010e+01 7.866740000000000066e+00 8.175430000000000419e+00 1.509951000000000043e+01 6.293420000000000236e+00 5.450370000000000381e+00 1.509951000000000043e+01 7.866710000000000313e+00 9.991860000000000852e+00 1.737106999999999957e+01 7.866690000000000182e+00 6.358150000000000190e+00 1.964264000000000010e+01 1.299999999999999886e-04 1.271692000000000000e+01 1.737106999999999957e+01 1.000000000000000048e-04 1.453335000000000043e+01 1.964264000000000010e+01 1.573469999999999924e+00 1.362556000000000012e+01 1.509951000000000043e+01 1.499999999999999869e-04 1.090049999999999919e+01 1.509951000000000043e+01 1.573439999999999950e+00 1.544199000000000055e+01 1.737106999999999957e+01 1.573420000000000041e+00 1.180827999999999989e+01 1.964264000000000010e+01 3.146760000000000002e+00 1.271692000000000000e+01 1.737106999999999957e+01 3.146739999999999871e+00 1.453335000000000043e+01 1.964264000000000010e+01 4.720100000000000406e+00 1.362556000000000012e+01 1.509951000000000043e+01 3.146790000000000198e+00 1.090049999999999919e+01 1.509951000000000043e+01 4.720080000000000275e+00 1.544199000000000055e+01 1.737106999999999957e+01 4.720049999999999635e+00 1.180827999999999989e+01 1.964264000000000010e+01 6.293389999999999596e+00 1.271692000000000000e+01 1.737106999999999957e+01 6.293370000000000353e+00 1.453335000000000043e+01 1.964264000000000010e+01 7.866740000000000066e+00 1.362556000000000012e+01 1.509951000000000043e+01 6.293420000000000236e+00 1.090049999999999919e+01 1.509951000000000043e+01 7.866710000000000313e+00 1.544199000000000055e+01 1.737106999999999957e+01 7.866690000000000182e+00 1.180827999999999989e+01 1.964264000000000010e+01