-2.820264039799999864e+03
-2.820227831300000162e+03
-2.820119956850000108e+03
-2.819941077309999855e+03
-2.819692409639999823e+03
