-2.400000000000000061e-05 2.443999999999999992e-03 5.860000000000000408e-04 -2.979999999999999793e-04 2.059000000000000066e-03 1.106999999999999911e-03 -1.019999999999999992e-04 -2.377000000000000206e-03 -5.060000000000000478e-04 2.480000000000000108e-04 -2.403000000000000188e-03 -3.310000000000000225e-04 2.259999999999999910e-04 2.295000000000000165e-03 3.429999999999999889e-04 3.600000000000000091e-05 2.154000000000000099e-03 2.570000000000000127e-04 0.000000000000000000e+00 -2.605000000000000111e-03 -2.200000000000000078e-04 -1.069999999999999988e-04 -2.334999999999999836e-03 -5.829999999999999679e-04 -1.879999999999999890e-04 2.294000000000000032e-03 3.820000000000000153e-04 2.709999999999999735e-04 2.064999999999999995e-03 1.139000000000000038e-03 -2.530000000000000239e-04 -2.635999999999999888e-03 -2.539999999999999940e-04 -4.889999999999999599e-04 -2.481999999999999831e-03 -4.350000000000000026e-04 -5.099999999999999960e-05 2.831000000000000183e-03 1.359999999999999989e-04 -1.959999999999999937e-04 2.563999999999999873e-03 3.930000000000000117e-04 -1.959999999999999937e-04 -2.284000000000000006e-03 -5.199999999999999544e-04 -7.919999999999999523e-04 -2.830000000000000050e-03 -1.000000000000000048e-04 3.879999999999999985e-04 2.883000000000000146e-03 1.067000000000000023e-03 9.899999999999999404e-05 2.740999999999999947e-03 7.209999999999999612e-04 -4.189999999999999931e-04 -2.308000000000000156e-03 -4.479999999999999933e-04 -9.200000000000000007e-05 -2.165999999999999957e-03 2.069999999999999900e-04 -3.669999999999999760e-04 2.879000000000000049e-03 1.124999999999999915e-03 1.150000000000000035e-04 2.603999999999999978e-03 4.780000000000000178e-04 2.489999999999999809e-04 -2.250999999999999963e-03 -4.169999999999999987e-04 5.879999999999999810e-04 -2.812999999999999962e-03 -2.280000000000000126e-04 -1.179999999999999951e-04 2.438000000000000063e-03 4.960000000000000216e-04 -3.240000000000000150e-04 2.657000000000000074e-03 1.221999999999999996e-03 -2.339999999999999958e-04 -2.090999999999999977e-03 2.000000000000000096e-04 -1.879999999999999890e-04 -2.703999999999999806e-03 1.310000000000000129e-04 3.820000000000000153e-04 2.308999999999999855e-03 1.322999999999999957e-03 5.399999999999999798e-05 2.635000000000000189e-03 3.510000000000000208e-04 6.499999999999999702e-04 -2.763999999999999964e-03 -2.579999999999999828e-04 3.100000000000000135e-05 -2.462999999999999912e-03 -2.290000000000000098e-04 -2.930000000000000204e-04 2.318999999999999881e-03 1.371999999999999956e-03 2.469999999999999865e-04 2.709000000000000036e-03 1.239000000000000084e-03 -7.749999999999999728e-04 -2.847999999999999837e-03 -1.949999999999999965e-04 -1.810000000000000085e-04 -2.579999999999999828e-03 2.000000000000000164e-05 -2.300000000000000002e-05 2.749999999999999840e-03 2.719999999999999979e-04 -3.499999999999999964e-04 2.226999999999999813e-03 1.244000000000000097e-03 -1.210000000000000002e-04 -2.477000000000000035e-03 -4.589999999999999896e-04 2.829999999999999942e-04 -2.602000000000000146e-03 -6.390000000000000280e-04 2.429999999999999977e-04 2.575000000000000032e-03 3.000000000000000076e-05 6.200000000000000270e-05 2.288000000000000103e-03 3.899999999999999929e-04 -1.299999999999999920e-05 -2.668999999999999932e-03 -1.969999999999999909e-04 -9.600000000000000243e-05 -2.567999999999999970e-03 -8.559999999999999901e-04 -2.229999999999999994e-04 2.534999999999999927e-03 9.699999999999999963e-05 2.939999999999999905e-04 2.273999999999999980e-03 1.258000000000000004e-03 -2.110000000000000059e-04 -2.730999999999999921e-03 -2.120000000000000031e-04 -5.270000000000000162e-04 -2.631999999999999791e-03 -7.299999999999999632e-04 -3.699999999999999811e-05 2.683000000000000055e-03 3.930000000000000117e-04 -1.469999999999999953e-04 2.354000000000000190e-03 4.240000000000000062e-04 -2.020000000000000040e-04 -2.191999999999999938e-03 -9.840000000000000656e-04 -8.369999999999999619e-04 -2.706000000000000072e-03 -3.310000000000000225e-04 3.299999999999999982e-04 2.809999999999999998e-03 1.275000000000000092e-03 -3.600000000000000091e-05 2.536000000000000060e-03 6.999999999999999929e-04 -4.200000000000000174e-04 -2.229000000000000078e-03 -8.000000000000000383e-04 -7.499999999999999343e-05 -2.033000000000000085e-03 3.999999999999999819e-06 -3.319999999999999926e-04 2.724999999999999992e-03 1.309999999999999967e-03 1.969999999999999909e-04 2.312999999999999952e-03 3.869999999999999742e-04 2.719999999999999979e-04 -2.252999999999999794e-03 -8.499999999999999526e-04 5.890000000000000053e-04 -2.680000000000000090e-03 -4.840000000000000010e-04 -7.100000000000000462e-05 2.292000000000000200e-03 1.669999999999999935e-04 -3.400000000000000244e-04 2.658000000000000206e-03 8.310000000000000329e-04 -1.879999999999999890e-04 -2.027000000000000156e-03 -1.600000000000000131e-04 -2.220000000000000022e-04 -2.729999999999999788e-03 -3.739999999999999835e-04 3.789999999999999966e-04 2.137000000000000011e-03 1.079000000000000098e-03 1.000000000000000048e-04 2.681999999999999922e-03 -3.699999999999999811e-05 6.849999999999999535e-04 -2.671000000000000197e-03 -6.650000000000000095e-04 -1.699999999999999987e-05 -2.441000000000000027e-03 -7.110000000000000434e-04 -3.469999999999999777e-04 2.243000000000000202e-03 1.066000000000000107e-03 2.059999999999999928e-04 2.746999999999999876e-03 8.899999999999999491e-04 -8.350000000000000217e-04 -2.735000000000000018e-03 -5.310000000000000050e-04 -1.079999999999999960e-04 -2.629999999999999959e-03 -4.910000000000000085e-04 -1.399999999999999979e-05 2.824999999999999820e-03 2.169999999999999891e-04 -3.849999999999999798e-04 2.109000000000000197e-03 9.389999999999999476e-04 -1.430000000000000064e-04 -2.347999999999999827e-03 -3.660000000000000059e-04 2.390000000000000089e-04 -2.272000000000000148e-03 -1.540000000000000028e-04 2.229999999999999994e-04 2.602999999999999845e-03 -3.699999999999999811e-05 1.800000000000000046e-05 2.098000000000000038e-03 1.099999999999999971e-05 -2.599999999999999840e-05 -2.490000000000000026e-03 -1.179999999999999951e-04 -1.019999999999999992e-04 -2.222000000000000017e-03 -3.640000000000000115e-04 -2.159999999999999919e-04 2.603999999999999978e-03 1.299999999999999920e-05 3.930000000000000117e-04 2.069000000000000093e-03 9.520000000000000467e-04 -1.959999999999999937e-04 -2.614000000000000004e-03 -1.330000000000000073e-04 -4.989999999999999861e-04 -2.269999999999999882e-03 -2.259999999999999910e-04 -1.900000000000000105e-05 2.625000000000000163e-03 -9.299999999999999727e-05 -1.949999999999999965e-04 2.425000000000000072e-03 2.069999999999999900e-04 -2.310000000000000042e-04 -2.527999999999999865e-03 -6.610000000000000207e-04 -7.919999999999999523e-04 -2.916999999999999888e-03 -2.709999999999999735e-04 3.879999999999999985e-04 2.805000000000000202e-03 8.120000000000000048e-04 6.700000000000000226e-05 2.514999999999999875e-03 4.970000000000000459e-04 -4.360000000000000269e-04 -2.589000000000000155e-03 -5.180000000000000143e-04 -1.110000000000000011e-04 -2.214999999999999955e-03 9.299999999999999727e-05 -3.919999999999999873e-04 2.815999999999999927e-03 8.159999999999999936e-04 1.559999999999999972e-04 2.445999999999999824e-03 1.620000000000000075e-04 3.150000000000000131e-04 -2.552000000000000015e-03 -5.310000000000000050e-04 5.760000000000000146e-04 -2.809999999999999998e-03 -4.690000000000000158e-04 -2.199999999999999943e-05 2.148000000000000170e-03 1.330000000000000073e-04 -3.080000000000000055e-04 2.722000000000000027e-03 8.840000000000000201e-04 -1.140000000000000063e-04 -1.845999999999999985e-03 4.670000000000000214e-04 -2.460000000000000164e-04 -2.794000000000000043e-03 1.219999999999999974e-04 3.190000000000000019e-04 2.113999999999999994e-03 9.610000000000000486e-04 1.599999999999999928e-05 2.772000000000000158e-03 -9.999999999999999547e-07 5.969999999999999829e-04 -2.543000000000000121e-03 5.399999999999999798e-05 1.399999999999999979e-05 -2.570999999999999935e-03 -2.180000000000000134e-04 -3.339999999999999870e-04 2.096000000000000207e-03 9.690000000000000262e-04 2.559999999999999884e-04 2.860000000000000129e-03 8.689999999999999808e-04 -8.350000000000000217e-04 -2.541999999999999989e-03 1.389999999999999905e-04 -1.169999999999999979e-04 -2.782000000000000185e-03 2.799999999999999958e-05 -2.410000000000000033e-04 -6.859999999999999779e-04 -1.061000000000000094e-03 -2.159999999999999919e-04 -4.275000000000000154e-03 4.847999999999999879e-03 3.310000000000000225e-04 4.728999999999999697e-03 -6.432000000000000217e-03 -4.960000000000000216e-04 4.619999999999999975e-03 -6.302000000000000310e-03 -1.299999999999999886e-04 -5.810000000000000277e-04 -8.540000000000000499e-04 -1.179999999999999951e-04 -5.159999999999999656e-03 4.634000000000000098e-03 3.139999999999999888e-04 -7.429999999999999539e-04 -1.013999999999999927e-03 6.300000000000000261e-04 -4.447000000000000432e-03 4.812000000000000305e-03 2.130000000000000003e-04 3.442000000000000181e-03 -6.457000000000000066e-03 1.730000000000000038e-04 4.655000000000000283e-03 -5.627000000000000057e-03 2.550000000000000183e-04 -4.449999999999999746e-04 -6.809999999999999647e-04 3.699999999999999947e-04 -4.487999999999999802e-03 4.714000000000000308e-03 2.530000000000000239e-04 -6.639999999999999852e-04 -1.041999999999999958e-03 -6.999999999999999387e-05 -4.466000000000000351e-03 4.994000000000000175e-03 -7.640000000000000306e-04 4.589000000000000197e-03 -6.571999999999999717e-03 3.399999999999999973e-05 4.771000000000000067e-03 -6.080000000000000335e-03 7.600000000000000418e-05 -6.409999999999999682e-04 -8.409999999999999507e-04 1.559999999999999972e-04 -5.139999999999999604e-03 4.884999999999999586e-03 -5.700000000000000314e-05 3.600000000000000091e-05 2.500000000000000120e-05 -2.799999999999999958e-05 -3.376000000000000095e-03 5.284999999999999767e-03 1.540000000000000028e-04 4.099000000000000213e-03 -5.361999999999999579e-03 -4.270000000000000249e-04 3.726000000000000145e-03 -6.217999999999999569e-03 9.100000000000000287e-05 -5.099999999999999960e-05 9.940000000000000918e-04 6.009999999999999717e-04 -3.233000000000000197e-03 4.760000000000000342e-03 4.229999999999999819e-04 3.849999999999999798e-04 4.429999999999999802e-04 6.340000000000000149e-04 -4.017999999999999870e-03 5.349999999999999721e-03 2.689999999999999791e-04 4.036999999999999790e-03 -6.427000000000000421e-03 -9.799999999999999684e-05 2.622999999999999898e-03 -6.457000000000000066e-03 1.689999999999999879e-04 -1.010000000000000020e-04 9.790000000000000525e-04 4.180000000000000230e-04 -4.237000000000000315e-03 5.095999999999999835e-03 -1.150000000000000035e-04 4.020000000000000136e-04 3.660000000000000059e-04 -7.600000000000000418e-05 -4.076999999999999895e-03 5.484000000000000159e-03 -5.730000000000000501e-04 4.133999999999999654e-03 -5.676999999999999755e-03 3.260000000000000094e-04 2.824000000000000121e-03 -6.643999999999999732e-03 -6.799999999999999946e-05 -5.199999999999999680e-05 9.669999999999999776e-04 -5.159999999999999656e-04 -3.304000000000000079e-03 4.956999999999999601e-03 -5.899999999999999754e-05 4.699999999999999859e-04 7.119999999999999593e-04 -5.800000000000000034e-05 -5.472000000000000301e-03 5.043999999999999873e-03 2.950000000000000148e-04 4.465000000000000219e-03 -5.178000000000000311e-03 -2.449999999999999921e-04 3.968000000000000173e-03 -5.004999999999999900e-03 -4.199999999999999768e-05 2.269999999999999882e-04 -2.120000000000000031e-04 -3.999999999999999819e-06 -4.219999999999999793e-03 5.636000000000000384e-03 3.780000000000000265e-04 4.389999999999999914e-04 5.929999999999999941e-04 3.999999999999999819e-06 -4.453000000000000361e-03 4.995999999999999573e-03 8.700000000000000051e-05 5.730999999999999983e-03 -5.220999999999999946e-03 -2.910000000000000260e-04 4.900999999999999975e-03 -5.095999999999999835e-03 2.410000000000000033e-04 -7.700000000000000139e-05 -5.630000000000000239e-04 2.149999999999999947e-04 -4.007000000000000145e-03 5.815999999999999989e-03 -2.500000000000000120e-05 4.260000000000000006e-04 6.089999999999999494e-04 4.840000000000000010e-04 -4.400000000000000265e-03 5.170000000000000116e-03 -6.459999999999999814e-04 4.551000000000000358e-03 -5.433000000000000329e-03 4.710000000000000102e-04 4.985999999999999981e-03 -5.506999999999999743e-03 3.000000000000000076e-06 2.950000000000000148e-04 -1.990000000000000124e-04 2.300000000000000070e-04 -4.179999999999999688e-03 5.697999999999999940e-03 -1.299999999999999920e-05 -2.610000000000000015e-04 5.000000000000000240e-05 -2.059999999999999928e-04 -3.445000000000000145e-03 6.932999999999999927e-03 3.550000000000000096e-04 4.335000000000000311e-03 -4.373000000000000151e-03 -2.849999999999999886e-04 3.565000000000000027e-03 -5.426000000000000267e-03 -7.100000000000000462e-05 -1.200000000000000030e-05 6.390000000000000280e-04 -1.289999999999999914e-04 -3.807000000000000054e-03 5.209000000000000088e-03 1.969999999999999909e-04 -3.029999999999999924e-04 8.399999999999999535e-05 7.489999999999999913e-04 -3.693999999999999801e-03 6.577999999999999646e-03 1.789999999999999870e-04 3.210999999999999879e-03 -4.310999999999999728e-03 9.799999999999999684e-05 3.615999999999999857e-03 -4.767000000000000404e-03 2.200000000000000078e-04 1.530000000000000056e-04 7.569999999999999689e-04 4.479999999999999933e-04 -3.086999999999999900e-03 5.381000000000000366e-03 9.899999999999999404e-05 -2.550000000000000183e-04 1.099999999999999971e-05 -7.200000000000000182e-05 -3.704999999999999960e-03 6.605999999999999893e-03 -6.809999999999999647e-04 4.393000000000000203e-03 -4.530000000000000172e-03 3.199999999999999855e-05 3.647000000000000068e-03 -4.945999999999999876e-03 9.799999999999999684e-05 1.200000000000000030e-04 6.160000000000000111e-04 1.659999999999999963e-04 -3.782000000000000205e-03 5.493999999999999752e-03 -1.150000000000000035e-04 2.180000000000000134e-04 -2.739999999999999923e-04 -1.890000000000000133e-04 -4.455999999999999892e-03 5.296000000000000360e-03 -3.699999999999999811e-05 5.213999999999999885e-03 -5.002999999999999635e-03 -3.809999999999999910e-04 5.272999999999999909e-03 -4.453999999999999626e-03 1.240000000000000054e-04 -2.259999999999999910e-04 -9.169999999999999549e-04 5.199999999999999544e-04 -4.240999999999999978e-03 6.279999999999999992e-03 4.000000000000000192e-04 5.039999999999999992e-04 9.399999999999999448e-05 8.149999999999999693e-04 -5.112000000000000224e-03 5.773999999999999619e-03 8.799999999999999771e-05 5.093000000000000305e-03 -5.778000000000000150e-03 -2.200000000000000078e-04 4.178000000000000290e-03 -4.586999999999999932e-03 2.249999999999999938e-04 -2.280000000000000126e-04 -8.379999999999999862e-04 4.939999999999999730e-04 -5.147999999999999798e-03 6.314000000000000168e-03 -4.199999999999999768e-05 5.969999999999999829e-04 1.859999999999999945e-04 -2.519999999999999996e-04 -5.152000000000000329e-03 5.421999999999999736e-03 -3.530000000000000152e-04 5.161999999999999922e-03 -5.066000000000000190e-03 2.660000000000000146e-04 4.166000000000000432e-03 -4.762999999999999873e-03 -1.129999999999999955e-04 -1.600000000000000131e-04 -7.950000000000000252e-04 -5.490000000000000088e-04 -4.186999999999999750e-03 6.291999999999999850e-03 -6.799999999999999946e-05 -1.179999999999999951e-04 -9.290000000000000297e-04 -2.139999999999999975e-04 -5.056999999999999863e-03 4.229000000000000120e-03 2.680000000000000090e-04 3.331000000000000193e-03 -4.559999999999999817e-03 -2.269999999999999882e-04 3.720000000000000216e-03 -4.886999999999999851e-03 -1.779999999999999898e-04 -9.299999999999999727e-05 -8.409999999999999507e-04 -1.700000000000000122e-04 -4.617999999999999709e-03 4.908000000000000036e-03 3.130000000000000187e-04 -2.559999999999999884e-04 -1.281000000000000021e-03 7.799999999999999859e-05 -4.109999999999999938e-03 4.236000000000000182e-03 9.799999999999999684e-05 4.621000000000000107e-03 -4.658999999999999947e-03 -2.380000000000000117e-04 4.943999999999999610e-03 -5.008000000000000299e-03 2.429999999999999977e-04 -3.669999999999999760e-04 -1.360000000000000098e-03 4.519999999999999821e-04 -4.577000000000000339e-03 5.159999999999999656e-03 3.899999999999999929e-05 -2.010000000000000068e-04 -1.129000000000000012e-03 6.109999999999999980e-04 -4.086000000000000222e-03 4.539999999999999765e-03 -6.740000000000000114e-04 3.356000000000000042e-03 -4.891000000000000382e-03 2.950000000000000148e-04 4.832000000000000357e-03 -5.185000000000000372e-03 1.210000000000000002e-04 -1.800000000000000113e-04 -8.559999999999999901e-04 1.949999999999999965e-04 -4.566999999999999879e-03 4.786000000000000323e-03 -2.180000000000000134e-04 2.400000000000000061e-04 -2.590000000000000071e-04 -3.970000000000000005e-04 -4.612999999999999913e-03 6.446000000000000341e-03 3.970000000000000005e-04 5.682000000000000418e-03 -5.924999999999999711e-03 -3.789999999999999966e-04 5.006000000000000033e-03 -6.209000000000000109e-03 -8.100000000000000375e-05 -6.520000000000000188e-04 -5.429999999999999714e-04 -1.289999999999999914e-04 -3.840999999999999796e-03 6.019000000000000045e-03 4.789999999999999879e-04 3.869999999999999742e-04 -2.869999999999999830e-04 7.540000000000000044e-04 -4.708000000000000379e-03 5.989999999999999665e-03 1.810000000000000085e-04 4.439000000000000237e-03 -5.902000000000000128e-03 2.620000000000000258e-04 5.285999999999999900e-03 -5.675999999999999622e-03 3.579999999999999741e-04 -5.039999999999999992e-04 -3.339999999999999870e-04 5.159999999999999656e-04 -3.122999999999999908e-03 6.035999999999999699e-03 4.100000000000000047e-05 2.999999999999999737e-04 -2.269999999999999882e-04 -1.699999999999999987e-05 -4.730999999999999962e-03 5.977999999999999807e-03 -9.009999999999999997e-04 5.636999999999999650e-03 -6.098000000000000122e-03 -1.399999999999999877e-04 5.111000000000000092e-03 -5.679000000000000020e-03 -1.410000000000000120e-04 -6.080000000000000335e-04 -5.749999999999999903e-04 2.489999999999999809e-04 -3.799999999999999992e-03 6.223000000000000233e-03 -1.379999999999999933e-04 -9.920000000000000432e-04 -1.626999999999999974e-03 -2.500000000000000052e-04 -4.029999999999999728e-03 5.558999999999999705e-03 -4.199999999999999768e-05 3.455000000000000172e-03 -6.871000000000000371e-03 -4.760000000000000234e-04 4.628000000000000169e-03 -6.315000000000000301e-03 3.119999999999999944e-04 -4.180000000000000230e-04 -8.869999999999999846e-04 7.370000000000000249e-04 -5.052000000000000067e-03 5.217000000000000283e-03 5.240000000000000517e-04 -6.089999999999999494e-04 -1.093999999999999920e-03 9.139999999999999904e-04 -4.760000000000000342e-03 5.661000000000000233e-03 2.359999999999999902e-04 3.295999999999999885e-03 -7.624999999999999833e-03 -3.000000000000000076e-05 3.474000000000000091e-03 -6.348999999999999609e-03 2.210000000000000050e-04 -6.210000000000000242e-04 -1.095999999999999969e-03 4.600000000000000139e-04 -5.865999999999999687e-03 5.348999999999999588e-03 -1.710000000000000094e-04 -6.509999999999999945e-04 -1.296000000000000060e-03 -2.139999999999999975e-04 -4.943000000000000345e-03 5.786000000000000344e-03 -5.890000000000000053e-04 3.387999999999999953e-03 -7.035999999999999720e-03 2.449999999999999921e-04 3.585000000000000079e-03 -6.596000000000000300e-03 -3.280000000000000038e-04 -5.879999999999999810e-04 -1.000000000000000021e-03 -6.930000000000000396e-04 -5.165000000000000320e-03 5.263999999999999582e-03 -2.349999999999999930e-04 7.669999999999999951e-04 -4.090000000000000211e-04 -1.720000000000000066e-04 -4.353000000000000098e-03 5.787999999999999742e-03 2.649999999999999903e-04 3.860000000000000150e-03 -5.592999999999999881e-03 -3.490000000000000263e-04 3.242000000000000090e-03 -6.288000000000000186e-03 -5.399999999999999798e-05 8.180000000000000422e-04 -2.120000000000000031e-04 -7.100000000000000462e-05 -3.644999999999999803e-03 5.840999999999999838e-03 4.939999999999999730e-04 5.479999999999999845e-04 -6.489999999999999459e-04 6.000000000000000152e-05 -3.436999999999999951e-03 5.800999999999999733e-03 2.939999999999999905e-04 5.062999999999999792e-03 -5.516000000000000070e-03 -1.090000000000000067e-04 4.341000000000000240e-03 -6.388999999999999714e-03 4.200000000000000174e-04 5.130000000000000011e-04 -5.749999999999999903e-04 6.070000000000000092e-04 -3.560999999999999929e-03 6.122999999999999970e-03 -1.999999999999999909e-06 5.890000000000000053e-04 -7.230000000000000098e-04 6.470000000000000057e-04 -3.304000000000000079e-03 5.981000000000000205e-03 -7.399999999999999894e-04 3.883000000000000167e-03 -5.650999999999999773e-03 3.620000000000000171e-04 4.210000000000000200e-03 -6.648000000000000263e-03 -5.899999999999999754e-05 7.619999999999999820e-04 -9.200000000000000007e-05 -1.500000000000000038e-05 -3.543000000000000142e-03 5.951999999999999826e-03