-4.702360295600000200e+02
-4.702360317299999792e+02
-4.702360360299999797e+02
-4.702360425800000030e+02
-4.702360515400000054e+02
-4.702360627599999816e+02
