-1.719750000062434392e-01 5.298699308189692574e-05 -4.049990507757940676e-04 3.581986995233671194e-03 1.719500002708810871e-01 -2.600019152893247600e-05 -1.830000036432688222e-04 1.999998577409631633e-05 -3.859999990098439675e-04 3.370000003595311714e-03 -2.899974487231693821e-05 2.539999814270544579e-04 8.130001002781397706e-04 -1.343999938760318197e-03 -2.480000031451525520e-04 2.311000079240319287e-03 -1.009999824702052448e-03 5.169999882524791736e-04 -1.686999802812635171e-03 -2.602000127516318397e-03 7.200001191107278367e-05 -1.770000149831938503e-04 2.129999868172146791e-04 2.040000007642537303e-04 -1.800002470077618780e-05 3.319999987125712786e-04 7.399999976773040259e-05 -2.050000083396770348e-04 1.009999843689395369e-04 -1.269999989693161579e-04 -1.600001509326189213e-05 1.729999984263241896e-04 -3.640000000844879294e-04 -4.900000921964132485e-05 1.129999961722540682e-04 -1.219999998424001257e-04 -7.169996847249706902e-04 -4.179000054368723488e-03 -1.419999918679588262e-04 1.340000198340429195e-03 -2.598999898333809091e-03 3.219999951994736162e-04 -2.800000083479978327e-04 1.059999787635949517e-04 -5.999999856032137076e-05 9.129998768720430256e-04 1.657000069446974699e-03 3.969999933052336229e-04 5.907000202902123846e-03 -1.203999533012821031e-03 2.026199996859685826e-02 3.820003106889819679e-03 -3.799199966882982338e-02 4.231000001686346934e-02 -2.532999787048996476e-03 -1.333000171279254652e-03 2.031500001531329549e-02 3.789000285983615528e-03 -2.334999693642203500e-03 1.981699998141764688e-02 -4.759998679807930420e-04 -2.340000153122626027e-04 2.071100000286118722e-02 1.860002505670799373e-04 -1.859999966046126758e-03 1.990900000083121665e-02 -3.639996899719650830e-04 -2.593000006914584609e-03 2.063800000459931408e-02 3.320000716468159141e-04 5.120000450817875637e-04 1.999499999765598154e-02 1.310000592001687439e-03 -6.359999880838927699e-03 2.010799999912184569e-02 2.030000170846109949e-03 -7.999998265030256557e-04 1.998999998959379368e-02 1.311000062214533971e-03 6.400001191687590060e-04 2.003999999212418767e-02 -1.260999827753897171e-03 -8.180000753952113837e-04 1.999700000777761971e-02 1.580900217571168040e-02 -2.961399881594315234e-02 -1.159500005768266707e-02 1.844100111198099592e-02 -1.408299859681891655e-02 8.492999912275523561e-03 2.908000047771621289e-03 8.660002404297405861e-04 2.051999998308323345e-02 3.029599903015703366e-02 1.572900233105952936e-02 3.980999981705912738e-02 4.792899968026009816e-02 3.409003613678206635e-03 -1.121700026796632228e-02 -1.369499926378347880e-02 -1.202300106707812621e-02 -3.135699991239609269e-02 1.184999958960283742e-03 -9.209999304096192852e-04 -2.005400000562106155e-02 3.200000097583883402e-02 -1.577499761914151130e-02 -3.935400016087809566e-02 1.442999948895032358e-03 -8.119999112266424162e-04 -2.038400000715406141e-02 1.310000166640723756e-03 -3.703999921462259280e-03 -2.056100000353117130e-02 -6.800000503486588847e-04 -8.220000717896793754e-04 -2.038399999542542251e-02 1.316000038021501424e-03 -1.965999920497057876e-03 -2.004900000530034088e-02 4.900000446878416275e-04 -2.100999983608929644e-03 -2.069100000060608915e-02 -2.140001061273757652e-04 -1.500003559505089737e-05 -1.943199999880377074e-02 6.399983257446437634e-05 7.419999846979818134e-04 -2.016500000109443594e-02 -6.509998967824917777e-04 -2.823000069192849789e-03 -1.997999999358674589e-02 3.803003329708916531e-03 -4.377799970898182264e-02 3.400000022736804003e-03 1.738999991055687139e-03 -1.347999888546414947e-03 -2.009000000825254470e-02 3.775999739659551425e-03 1.915000264677349517e-03 -2.092600002275582169e-02 1.652999998695414609e-03 -1.444999894995678677e-03 -2.003500000768094688e-02
-1.718850000062379368e-01 5.298699988961899572e-05 -4.039990512725811166e-04 3.574987002056953956e-03 1.718600002703546958e-01 -2.300019140039460445e-05 -1.810000034163780560e-04 1.699998592535683587e-05 -3.859999990178870671e-04 3.366000003822202172e-03 -3.199974517483795549e-05 2.539999814521304820e-04 8.150000999866584619e-04 -1.339999938607060051e-03 -2.460000031601877312e-04 2.306000079321468988e-03 -1.010999825079204884e-03 5.179999882810774154e-04 -1.683999803266416750e-03 -2.596000127289427046e-03 7.200001188851996902e-05 -1.780000148098539081e-04 2.109999867455799292e-04 2.080000007717713330e-04 -1.300002446284571756e-05 3.289999990927202972e-04 7.599999974312776261e-05 -2.070000082640467720e-04 9.999998421767902518e-05 -1.269999989572775565e-04 -1.700001494200137819e-05 1.709999983506939650e-04 -3.640000000769703426e-04 -5.100000930079143273e-05 1.139999960199946754e-04 -1.229999998323592859e-04 -7.179996852543825154e-04 -4.172000054444353900e-03 -1.419999918694311186e-04 1.338000198065507568e-03 -2.594999898480075239e-03 3.269999952065177993e-04 -2.780000085638488841e-04 1.089999789168532088e-04 -5.799999857435771518e-05 9.149998769476733315e-04 1.656000069598235081e-03 3.969999932951927724e-04 5.904000202706704246e-03 -1.201999533247702758e-03 2.025399996861142540e-02 3.817003104693246929e-03 -3.796499966908468277e-02 4.228200001685305381e-02 -2.531999787039604551e-03 -1.334000171215610816e-03 2.030300001530877668e-02 3.785000285836227253e-03 -2.333999693957710536e-03 1.980399998143872464e-02 -4.739998681005821004e-04 -2.330000151689931218e-04 2.070300000284914718e-02 1.860002504252114054e-04 -1.858999966058113131e-03 1.989700000083021933e-02 -3.629996901949836567e-04 -2.591000006851940443e-03 2.062500000459179667e-02 3.300000714237972675e-04 5.140000449175416083e-04 1.998199999766502380e-02 1.309000591243737180e-03 -6.350999880928542320e-03 2.009399999911837612e-02 2.027000170623091766e-03 -7.979998267429017599e-04 1.997699998960835929e-02 1.312000062223925680e-03 6.390001192324027334e-04 2.002799999211966886e-02 -1.257999827960356188e-03 -8.160000751783093179e-04 1.998700000775906205e-02 1.579500217385017280e-02 -2.958799881698299591e-02 -1.157600005763135924e-02 1.842400111084654263e-02 -1.406799859810463176e-02 8.492999912354377151e-03 2.902000047775493696e-03 8.650002399629736372e-04 2.050699998311735286e-02 3.027499903125119990e-02 1.571300232945031794e-02 3.978899981719102863e-02 4.788899968056262169e-02 3.405003610652996247e-03 -1.121700026774153335e-02 -1.368699926456960411e-02 -1.201100106645111056e-02 -3.133499991245223409e-02 1.182999959194341909e-03 -9.229999305458966080e-04 -2.003900000560802572e-02 3.197800097547501968e-02 -1.576799762077541259e-02 -3.932400016076365024e-02 1.441999948955750800e-03 -8.119999112912850434e-04 -2.037300000714854092e-02 1.311000166328810850e-03 -3.698999921374642938e-03 -2.054900000354168907e-02 -6.820000504392009820e-04 -8.200000719299523197e-04 -2.037299999541637707e-02 1.314000037790738918e-03 -1.961999920635333454e-03 -2.003600000529329531e-02 4.910000446138591650e-04 -2.098999983519315299e-03 -2.067700000061360732e-02 -2.130001061367677506e-04 -1.400003550743411873e-05 -1.941999999881028477e-02 6.399983264622250041e-05 7.419999847109671944e-04 -2.015200000109443682e-02 -6.539998969100251427e-04 -2.820000069401760838e-03 -1.996199999357318317e-02 3.798003326185766214e-03 -4.373199970936796077e-02 3.392000022718455205e-03 1.734999990981704555e-03 -1.345999888834951671e-03 -2.007600000823245995e-02 3.772999739952680263e-03 1.912000264462445287e-03 -2.091400002273626629e-02 1.651999998551321623e-03 -1.441999895056325512e-03 -2.002000000767842000e-02
-1.716910000062268904e-01 5.298701456388673064e-05 -4.019990523434330797e-04 3.572987016572443195e-03 1.716680002702024310e-01 -2.400019119757061087e-05 -1.800000034163780588e-04 1.699998600098709652e-05 -3.859999990234069030e-04 3.364000003816682016e-03 -3.199974532709735225e-05 2.529999814631702379e-04 8.150001000622887192e-04 -1.340999938607059967e-03 -2.460000031591888557e-04 2.306000079386059682e-03 -1.011999825081202767e-03 5.159999882820762423e-04 -1.681999803347566632e-03 -2.595000127139165599e-03 7.100001187648138392e-05 -1.780000148098539081e-04 2.109999867455799292e-04 2.080000007717713330e-04 -1.300002446836557209e-05 3.289999990917214217e-04 7.499999974312775185e-05 -2.070000081017465585e-04 9.799998421967676815e-05 -1.249999989552798112e-04 -1.500001501763163936e-05 1.719999985019544497e-04 -3.640000000890089441e-04 -5.300000914953091261e-05 1.119999958687341665e-04 -1.229999998193218361e-04 -7.159996854056429813e-04 -4.170000054293092687e-03 -1.419999918824685684e-04 1.337000198065507652e-03 -2.594999898555705280e-03 3.269999952120376352e-04 -2.770000086449990071e-04 1.099999789914845878e-04 -5.899999858087644406e-05 9.139998770177836743e-04 1.655000069521606141e-03 3.959999933017115136e-04 5.894000202592434082e-03 -1.200999534010997651e-03 2.024699996866562504e-02 3.814003100805209070e-03 -3.791599966934453697e-02 4.224900001682067169e-02 -2.528999787137314187e-03 -1.333000170992715630e-03 2.029900001529121728e-02 3.783000285662886913e-03 -2.331999694112966287e-03 1.979999998144776896e-02 -4.729998681392211441e-04 -2.330000151003549928e-04 2.069600000284363070e-02 1.860002502999024625e-04 -1.857999966067103203e-03 1.988800000082921807e-02 -3.629996904494737163e-04 -2.588000006856934748e-03 2.062000000458880100e-02 3.290000714663083767e-04 5.130000448359180740e-04 1.997599999767154383e-02 1.308000590832466637e-03 -6.345999881010165600e-03 2.008799999911890094e-02 2.024000170481223080e-03 -7.969998269817790129e-04 1.996499998962391817e-02 1.311000062120696273e-03 6.400001191517781232e-04 2.002299999212418802e-02 -1.258999827998995118e-03 -8.160000752609317034e-04 1.998000000776458188e-02 1.577100217087241615e-02 -2.954599881876215917e-02 -1.154000005754083659e-02 1.840000110923235843e-02 -1.404599859991076741e-02 8.501999912464877629e-03 2.899000047818004865e-03 8.640002397300895884e-04 2.050099998313490920e-02 3.023299903250049880e-02 1.569400232623988437e-02 3.975499981744184258e-02 4.782799968053502021e-02 3.405003606034556068e-03 -1.122200026740482158e-02 -1.366799926583159124e-02 -1.199300106499615569e-02 -3.131699991257509003e-02 1.180999959140791164e-03 -9.219999306931615964e-04 -2.003500000559798461e-02 3.193300097412801047e-02 -1.574799762414880525e-02 -3.929400016053524042e-02 1.439999948935319178e-03 -8.109999114325567790e-04 -2.036300000713850075e-02 1.310000166087007829e-03 -3.694999921439285143e-03 -2.053800000354016192e-02 -6.820000504541127734e-04 -8.190000719189646653e-04 -2.036199999541737915e-02 1.313000037672597394e-03 -1.959999920704970193e-03 -2.003000000528977129e-02 4.910000444846779940e-04 -2.096999983515319532e-03 -2.067300000061560519e-02 -2.130001060870890649e-04 -1.400003549844422603e-05 -1.941099999881028618e-02 6.199983285268158273e-05 7.399999845696954943e-04 -2.014200000108139904e-02 -6.539998971148364626e-04 -2.817000069397765372e-03 -1.995799999357618024e-02 3.797003322179587012e-03 -4.368099970947056376e-02 3.365000022673032224e-03 1.734999990939193422e-03 -1.344999888828958502e-03 -2.007000000823346009e-02 3.768999740072470194e-03 1.911000264167915129e-03 -2.090600002271318994e-02 1.645999998497770780e-03 -1.440999895506111638e-03 -2.001600000764629933e-02
-1.713860000056864341e-01 4.598703763311308223e-05 -3.999990540199968667e-04 3.555987038283847483e-03 1.713810002689177270e-01 -2.300019081705551927e-05 -1.790000034864884287e-04 1.799998607761622645e-05 -3.849999990299256443e-04 3.357000003475522128e-03 -2.799974586350130270e-05 2.459999814978136882e-04 8.080001001914698285e-04 -1.342999939140467319e-03 -2.500000031185521340e-04 2.306000079461689722e-03 -1.012999825081202683e-03 5.159999882830751177e-04 -1.682999803196306250e-03 -2.597000127214795905e-03 7.100001188399898428e-05 -1.770000144482621865e-04 2.059999868182135741e-04 2.050000007712458557e-04 -8.000024588154686320e-06 3.299999994618817286e-04 6.699999971452961090e-05 -2.050000084798978505e-04 1.029999843709372687e-04 -1.249999989713139145e-04 -1.700001484429169944e-05 1.699999983546894697e-04 -3.600000000759714784e-04 -5.200000978217226140e-05 1.199999959393700105e-04 -1.279999998328326888e-04 -7.159996868702171030e-04 -4.151000054298087036e-03 -1.469999919014472153e-04 1.338000197881127930e-03 -2.592999898486068443e-03 3.209999952045200652e-04 -2.710000079643267086e-04 1.009999794452661566e-04 -5.899999860500568867e-05 9.049998774384460922e-04 1.649000068834940644e-03 3.899999933573834688e-04 5.888000202828717368e-03 -1.204999534476765581e-03 2.023499996870273612e-02 3.809003095159468021e-03 -3.784499966977263041e-02 4.219900001677735074e-02 -2.521999787116882552e-03 -1.334000170473292500e-03 2.028900001525357766e-02 3.773000285484026921e-03 -2.329999694874263297e-03 1.979499998150096793e-02 -4.749998683953588602e-04 -2.310000152705941738e-04 2.067700000285267389e-02 1.890002498610327832e-04 -1.852999965851199939e-03 1.987700000080766527e-02 -3.599996909159427377e-04 -2.583000006646025536e-03 2.060400000456724667e-02 3.270000716269609608e-04 5.100000446726711979e-04 1.996399999768557962e-02 1.308000590057956840e-03 -6.336999881027145613e-03 2.007099999910990848e-02 2.019000170431543839e-03 -7.969998273689201784e-04 1.995599998965151903e-02 1.309000061925277023e-03 6.420001189925263283e-04 2.001499999213323180e-02 -1.255999828059713511e-03 -8.160000750450285617e-04 1.996900000774802161e-02 1.573600216725979523e-02 -2.949399882135128256e-02 -1.148200005739958250e-02 1.837000110745035109e-02 -1.402199860217368151e-02 8.507999912606501250e-03 2.896000047589466359e-03 8.660002394892146087e-04 2.048699998314947035e-02 3.017999903457456445e-02 1.566300232218253638e-02 3.970599981776535420e-02 4.773499968148896266e-02 3.391003598981963494e-03 -1.124100026687749158e-02 -1.363699926754571162e-02 -1.196800106261965146e-02 -3.128499991277117892e-02 1.177999959006090138e-03 -9.199999309170558016e-04 -2.003200000558342381e-02 3.187700097217760487e-02 -1.571899762834015266e-02 -3.925000016025509408e-02 1.440999948909367631e-03 -8.099999113479366183e-04 -2.035400000714502125e-02 1.307000166125646878e-03 -3.694999921659184328e-03 -2.053100000352360219e-02 -6.820000499672121061e-04 -8.250000719129713415e-04 -2.035599999541138488e-02 1.311000037856977201e-03 -1.961999920850237503e-03 -2.002400000527673404e-02 4.940000443019460907e-04 -2.093999983280438008e-03 -2.066500000063516140e-02 -2.110001062162701873e-04 -1.200003534318821016e-05 -1.940699999882332383e-02 5.999983302050166474e-05 7.379999844214316660e-04 -2.013900000106836133e-02 -6.549998973842383922e-04 -2.813000069467402279e-03 -1.995199999357465462e-02 3.789003315519180650e-03 -4.359599971011756531e-02 3.323000022632286669e-03 1.733999990605201123e-03 -1.339999888896597742e-03 -2.006200000823293514e-02 3.760999740413629826e-03 1.907000263569865210e-03 -2.089900002266503395e-02 1.648999997746988062e-03 -1.430999895278222073e-03 -2.001500000767285001e-02
-1.709750000069870657e-01 6.398706872813656734e-05 -3.889990563066372570e-04 3.536987069701875465e-03 1.709650002674727720e-01 -3.100019029664565049e-05 -1.800000031414563176e-04 1.299998599599272024e-05 -3.909999990194114143e-04 3.350000003049339974e-03 -2.199974638791873965e-05 2.509999815304594082e-04 8.160001000827204250e-04 -1.341999938541418597e-03 -2.560000031637098424e-04 2.299000077764704660e-03 -9.909998256166076356e-04 5.099999882997388340e-04 -1.674999803991247859e-03 -2.587000126616746058e-03 6.400001182985137239e-05 -1.700000147469111426e-04 2.089999873346399585e-04 1.920000007296102519e-04 -1.200002447388543280e-05 3.289999991663528035e-04 7.399999973760790521e-05 -1.890000078654638816e-04 9.399998556903490458e-05 -1.369999990506417012e-04 -2.800001482937981625e-05 1.689999975117689583e-04 -3.710000000142541876e-04 -5.600000928258413383e-05 1.149999956588242963e-04 -1.059999998057588940e-04 -7.069996870805483110e-04 -4.148000053614418238e-03 -1.439999919541225628e-04 1.335000197648717303e-03 -2.589999898713957801e-03 3.199999952180830306e-04 -2.840000079052560039e-04 9.999997845907617497e-05 -6.199999853224869430e-05 9.139998782168281188e-04 1.639000069519608435e-03 3.939999933176935266e-04 5.886000201445293345e-03 -1.186999534632021593e-03 2.023099996869579670e-02 3.790003087582683849e-03 -3.774999967128053052e-02 4.212800001678733419e-02 -2.523999787406139717e-03 -1.332000170649525177e-03 2.026400001526261832e-02 3.773000284130426530e-03 -2.313999694900233887e-03 1.976899998148498247e-02 -4.629998688342285376e-04 -2.260000143740187306e-04 2.066600000278143862e-02 1.800002501745935363e-04 -1.856999966529874384e-03 1.987900000086133961e-02 -3.729996911240494265e-04 -2.582000007653192410e-03 2.058000000463800633e-02 3.380000708855701759e-04 5.190000454936162912e-04 1.995299999761587090e-02 1.310000589085803108e-03 -6.323999880873888008e-03 2.007299999908588456e-02 2.010000171034938884e-03 -8.059998280635768605e-04 1.994199998971018725e-02 1.302000062820152498e-03 6.290001184471326378e-04 1.999899999218485505e-02 -1.244999828644323837e-03 -8.090000742230845331e-04 1.995900000768031229e-02 1.571300216142959214e-02 -2.941099882300987275e-02 -1.140100005735553319e-02 1.830100110524768287e-02 -1.399199860738018115e-02 8.519999912957404442e-03 2.882000047938370734e-03 8.600002384114122274e-04 2.046799998323274236e-02 3.010899903762852964e-02 1.561700231673587499e-02 3.962899981820321160e-02 4.760399968300931678e-02 3.369003589048429146e-03 -1.126700026613241395e-02 -1.360699926862167161e-02 -1.195100106031278704e-02 -3.124699991295375526e-02 1.177999958710736770e-03 -9.149999309020726565e-04 -2.001700000558841869e-02 3.180500096876592159e-02 -1.566899763371860238e-02 -3.918300015990761054e-02 1.437999949162209901e-03 -8.139999115838173665e-04 -2.036300000712446684e-02 1.300000164985673067e-03 -3.679999922189594857e-03 -2.053200000349994850e-02 -6.750000512457589742e-04 -8.070000713685765133e-04 -2.034099999546800513e-02 1.302000036318420265e-03 -1.940999921521920080e-03 -2.001500000524803272e-02 4.760000436378334959e-04 -2.084999984638786011e-03 -2.066200000054479319e-02 -2.150001063840902254e-04 -1.000003564870587798e-05 -1.940999999880324220e-02 7.499983286536896149e-05 7.409999855688708705e-04 -2.012600000115415816e-02 -6.479998982642022924e-04 -2.801000068932996568e-03 -1.994699999362527926e-02 3.772003306911172592e-03 -4.348699971146920140e-02 3.257000022617246530e-03 1.723999991010951617e-03 -1.344999889647905842e-03 -2.005700000817273870e-02 3.761999741243338222e-03 1.898000263672465103e-03 -2.087200002266156526e-02 1.652999998423788138e-03 -1.438999894962715532e-03 -2.000200000768693684e-02
-1.704230000048428950e-01 3.198711042609502972e-05 -4.389990593216333559e-04 3.532987114454556529e-03 1.703740002671802201e-01 -2.100018968423022903e-05 -1.910000050007413109e-04 3.699998515606880593e-05 -3.989999989826660456e-04 3.320000003996119008e-03 -3.699974869078823553e-05 2.169999817110382270e-04 8.030000992320036933e-04 -1.328999939500638940e-03 -2.320000031049371258e-04 2.298000077038226188e-03 -9.829998257142131754e-04 4.879999882972676736e-04 -1.642999804922537933e-03 -2.576000124214557641e-03 4.600001164222835979e-05 -1.780000146707041216e-04 2.049999866886439634e-04 1.510000007777646098e-04 -1.100002479790918376e-05 3.299999991970336351e-04 2.899999973108917408e-05 -1.830000108404188162e-04 1.309999859908523028e-04 -1.689999991207192631e-04 -2.000001636348771491e-05 1.859999980718615188e-04 -4.160000000753938756e-04 -4.500000792618268937e-05 9.399999644880434779e-05 -1.479999998455008847e-04 -6.839996908653569151e-04 -4.100000051902892052e-03 -1.719999921290253013e-04 1.320000196201279391e-03 -2.573999899891363675e-03 2.769999952848988174e-04 -2.950000077683305900e-04 9.599997759717703819e-05 -9.199999846753477819e-05 9.299998759595367150e-04 1.666000070690735980e-03 3.549999932024062175e-04 5.856000202440103837e-03 -1.202999536939885735e-03 2.019199996887737630e-02 3.803003076536876775e-03 -3.761299967042119191e-02 4.200400001657873111e-02 -2.521999788121578878e-03 -1.324000170518242194e-03 2.024400001524358922e-02 3.763000284161898291e-03 -2.314999695664527162e-03 1.976099998154118298e-02 -4.779998666299114444e-04 -2.550000155064748118e-04 2.066800000289320191e-02 1.960002487012040202e-04 -1.839999965353752162e-03 1.984500000075604259e-02 -3.699996920332602112e-04 -2.571000007440285735e-03 2.056600000461045880e-02 3.180000716700487795e-04 5.060000439450516386e-04 1.991699999773925353e-02 1.301000586623700644e-03 -6.293999881589521644e-03 2.003799999910559765e-02 1.988000169867365583e-03 -7.909998297334358422e-04 1.993599998981663776e-02 1.319000062335476051e-03 6.330001196998841098e-04 1.996599999208702181e-02 -1.256999830280013759e-03 -7.900000751666072171e-04 1.992300000772757179e-02 1.564500215557508220e-02 -2.932599882804885066e-02 -1.129700005706508678e-02 1.823500110225501417e-02 -1.394899861232483211e-02 8.566999913278763867e-03 2.885000047558571642e-03 8.640002386243187315e-04 2.045399998321218923e-02 2.997799904325449891e-02 1.553400230671044165e-02 3.951099981900921959e-02 4.746299968369995653e-02 3.356003578331622373e-03 -1.132000026534113121e-02 -1.354399927156631038e-02 -1.190900105550612813e-02 -3.120499991334345705e-02 1.177999960142191768e-03 -9.339999309030714517e-04 -2.001800000556944181e-02 3.168200096435836582e-02 -1.560699764297018149e-02 -3.913200015929059472e-02 1.427999949992494935e-03 -8.259999123541041620e-04 -2.037700000705728112e-02 1.304000163447116556e-03 -3.658999921878084306e-03 -2.052300000354300227e-02 -6.820000506423645314e-04 -8.160000719119725725e-04 -2.035499999542037669e-02 1.319000036108089035e-03 -1.937999920233209007e-03 -2.001200000534486545e-02 4.880000419331042769e-04 -2.060999983711245265e-03 -2.064200000063500656e-02 -2.230001060037144862e-04 -1.700003628071759294e-05 -1.943699999875209139e-02 6.999983190977491891e-05 7.539999851957138437e-04 -2.012100000113954332e-02 -6.559998983933833325e-04 -2.799000069534042859e-03 -1.994299999358311801e-02 3.755003293921057878e-03 -4.332399971287478196e-02 3.137000022548267104e-03 1.711999989629175338e-03 -1.325999890545480038e-03 -2.004700000812548177e-02 3.746999740998239754e-03 1.900000262521030518e-03 -2.088900002258076496e-02 1.642999997653150435e-03 -1.430999895748984391e-03 -2.003200000763973032e-02
