2.240000000000000213e+00 3.376160000000000050e+00 4.647230000000000416e+00 9.630039999999999267e+00 3.915900000000000158e+00 2.241830000000000211e+00 1.777150000000000007e+00 1.198450000000000015e+00 2.241839999999999833e+00 5.315360000000000085e+00 3.376160000000000050e+00 4.647230000000000416e+00 3.479309999999999903e+00 3.915900000000000158e+00 2.241830000000000211e+00 4.852520000000000167e+00 1.198450000000000015e+00 2.241839999999999833e+00 8.390719999999999956e+00 3.376160000000000050e+00 4.647219999999999906e+00 6.554669999999999774e+00 3.915900000000000158e+00 2.241830000000000211e+00 7.927900000000000169e+00 1.198460000000000081e+00 2.241839999999999833e+00 8.668099999999999694e-01 6.093619999999999592e+00 4.647249999999999659e+00 2.106120000000000214e+00 6.633370000000000211e+00 2.241849999999999898e+00 3.942180000000000017e+00 6.093639999999999723e+00 4.647240000000000038e+00 5.181499999999999773e+00 6.633370000000000211e+00 2.241839999999999833e+00 7.017529999999999824e+00 6.093619999999999592e+00 4.647240000000000038e+00 8.256859999999999644e+00 6.633379999999999832e+00 2.241839999999999833e+00 1.035511999999999944e+01 4.871059999999999945e+00 9.157989999999999853e+00 2.502240000000000020e+00 2.153610000000000024e+00 9.157999999999999474e+00 4.204390000000000072e+00 4.871069999999999567e+00 9.157999999999999474e+00 5.577609999999999957e+00 2.153620000000000090e+00 9.158010000000000872e+00 7.279749999999999943e+00 4.871059999999999945e+00 9.157999999999999474e+00 8.652969999999999828e+00 2.153599999999999959e+00 9.157999999999999474e+00 2.831210000000000004e+00 7.588530000000000442e+00 9.157999999999999474e+00 5.906570000000000320e+00 7.588540000000000063e+00 9.157999999999999474e+00 8.981939999999999813e+00 7.588530000000000442e+00 9.157999999999999474e+00 5.378399999999999848e-01 6.587199999999999722e-01 4.647240000000000038e+00 3.613199999999999967e+00 6.586999999999999522e-01 4.647240000000000038e+00 6.688570000000000348e+00 6.586999999999999522e-01 4.647249999999999659e+00 2.965079999999999938e+00 4.331319999999999837e+00 1.156339000000000006e+01 6.040440000000000254e+00 4.331299999999999706e+00 1.156338000000000044e+01 9.115819999999999368e+00 4.331310000000000215e+00 1.156339000000000006e+01 1.591890000000000027e+00 7.048790000000000333e+00 1.156339999999999968e+01 4.667250000000000121e+00 7.048790000000000333e+00 1.156340999999999930e+01 7.742609999999999992e+00 7.048799999999999955e+00 1.156340999999999930e+01 3.690170000000000172e+00 5.286469999999999558e+00 1.847954000000000008e+01 1.108018000000000036e+01 5.826229999999999798e+00 1.607415999999999912e+01 3.227320000000000189e+00 3.108760000000000190e+00 1.607415999999999912e+01 6.765520000000000422e+00 5.286459999999999937e+00 1.847954999999999970e+01 4.929470000000000240e+00 5.826229999999999798e+00 1.607413999999999987e+01 6.302679999999999616e+00 3.108760000000000190e+00 1.607416999999999874e+01 9.840889999999999915e+00 5.286480000000000068e+00 1.847954999999999970e+01 8.004830000000000112e+00 5.826220000000000176e+00 1.607413999999999987e+01 9.378049999999999997e+00 3.108760000000000190e+00 1.607415999999999912e+01 2.316959999999999908e+00 8.003949999999999676e+00 1.847956999999999894e+01 3.556280000000000108e+00 8.543680000000000163e+00 1.607415999999999912e+01 5.392330000000000290e+00 8.003940000000000055e+00 1.847955999999999932e+01 6.631649999999999601e+00 8.543689999999999785e+00 1.607415999999999912e+01 8.467700000000000671e+00 8.003949999999999676e+00 1.847955999999999932e+01 9.707019999999999982e+00 8.543699999999999406e+00 1.607414999999999949e+01 1.262920000000000043e+00 1.613860000000000072e+00 1.156339999999999968e+01 4.338289999999999758e+00 1.613860000000000072e+00 1.156340999999999930e+01 7.413649999999999629e+00 1.613869999999999916e+00 1.156339999999999968e+01 1.987999999999999989e+00 2.569030000000000147e+00 1.847956999999999894e+01 5.063380000000000436e+00 2.569020000000000081e+00 1.847956999999999894e+01 8.138730000000000686e+00 2.569020000000000081e+00 1.847956999999999894e+01 9.959009999999999252e+00 9.350830000000000197e+00 2.241830000000000211e+00 3.808279999999999887e+00 9.350830000000000197e+00 2.241839999999999833e+00 6.883639999999999759e+00 9.350830000000000197e+00 2.241830000000000211e+00 1.195789999999999909e+00 1.152856000000000058e+01 4.647249999999999659e+00 2.897949999999999804e+00 1.424599000000000082e+01 4.647219999999999906e+00 1.028796999999999962e+01 1.478575000000000017e+01 2.241830000000000211e+00 2.435090000000000199e+00 1.206828999999999930e+01 2.241839999999999833e+00 4.271139999999999937e+00 1.152853999999999957e+01 4.647240000000000038e+00 5.973309999999999675e+00 1.424599000000000082e+01 4.647230000000000416e+00 4.137240000000000251e+00 1.478574000000000055e+01 2.241830000000000211e+00 5.510460000000000136e+00 1.206830000000000069e+01 2.241849999999999898e+00 7.346499999999999808e+00 1.152856000000000058e+01 4.647240000000000038e+00 9.048669999999999547e+00 1.424600000000000044e+01 4.647230000000000416e+00 7.212600000000000122e+00 1.478575000000000017e+01 2.241839999999999833e+00 8.585829999999999629e+00 1.206830000000000069e+01 2.241839999999999833e+00 1.068407999999999980e+01 1.030597999999999992e+01 9.157999999999999474e+00 4.533350000000000435e+00 1.030597999999999992e+01 9.157989999999999853e+00 7.608719999999999928e+00 1.030598999999999954e+01 9.157999999999999474e+00 1.101304999999999978e+01 1.574090999999999951e+01 9.157980000000000231e+00 3.160179999999999989e+00 1.302345000000000041e+01 9.157989999999999853e+00 4.862330000000000041e+00 1.574091999999999913e+01 9.157989999999999853e+00 6.235529999999999795e+00 1.302345000000000041e+01 9.158010000000000872e+00 7.937689999999999912e+00 1.574090999999999951e+01 9.157989999999999853e+00 9.310900000000000176e+00 1.302345000000000041e+01 9.157999999999999474e+00 2.568979999999999819e+00 8.811090000000000089e+00 4.647219999999999906e+00 5.644330000000000069e+00 8.811080000000000467e+00 4.647219999999999906e+00 8.719699999999999562e+00 8.811090000000000089e+00 4.647230000000000416e+00 1.920870000000000077e+00 1.248371000000000031e+01 1.156340999999999930e+01 3.623019999999999907e+00 1.520115999999999978e+01 1.156338000000000044e+01 4.996229999999999727e+00 1.248371000000000031e+01 1.156340999999999930e+01 6.698389999999999844e+00 1.520115999999999978e+01 1.156338000000000044e+01 8.071590000000000487e+00 1.248371000000000031e+01 1.156339999999999968e+01 9.773740000000000094e+00 1.520115999999999978e+01 1.156338000000000044e+01 1.140916999999999959e+01 1.126115000000000066e+01 1.607414999999999949e+01 5.258440000000000225e+00 1.126115000000000066e+01 1.607414999999999949e+01 8.333809999999999718e+00 1.126113999999999926e+01 1.607415999999999912e+01 2.645950000000000024e+00 1.343887999999999927e+01 1.847956999999999894e+01 4.348110000000000142e+00 1.615631000000000128e+01 1.847954000000000008e+01 1.173813999999999957e+01 1.669606999999999886e+01 1.607415999999999912e+01 3.885269999999999779e+00 1.397860000000000014e+01 1.607415999999999912e+01 5.721300000000000274e+00 1.343886999999999965e+01 1.847956999999999894e+01 7.423460000000000392e+00 1.615631000000000128e+01 1.847954000000000008e+01 5.587410000000000210e+00 1.669606999999999886e+01 1.607415999999999912e+01 6.960619999999999585e+00 1.397861999999999938e+01 1.607415999999999912e+01 8.796670000000000655e+00 1.343886000000000003e+01 1.847955999999999932e+01 1.049882999999999988e+01 1.615632000000000090e+01 1.847954000000000008e+01 8.662779999999999703e+00 1.669605999999999923e+01 1.607415999999999912e+01 1.003598000000000035e+01 1.397860000000000014e+01 1.607416999999999874e+01 3.294049999999999923e+00 9.766230000000000189e+00 1.156339000000000006e+01 6.369410000000000238e+00 9.766239999999999810e+00 1.156338000000000044e+01 9.444770000000000110e+00 9.766239999999999810e+00 1.156339000000000006e+01 4.019140000000000157e+00 1.072138999999999953e+01 1.847954999999999970e+01 7.094500000000000028e+00 1.072138999999999953e+01 1.847954000000000008e+01 1.016985999999999990e+01 1.072139999999999915e+01 1.847954999999999970e+01 7.398740000000000094e+00 6.603810000000000180e+00 8.068310000000000315e+00 7.675650000000000084e+00 8.677369999999999806e+00 1.036068999999999996e+01 4.323369999999999713e+00 6.603810000000000180e+00 8.068289999999999296e+00 4.708800000000000208e-01 2.287300000000000111e+00 3.444539999999999935e+00 9.973959999999999937e+00 4.360870000000000246e+00 5.736970000000000347e+00 1.896099999999999897e+00 2.931210000000000093e+00 1.152150000000000007e+00 1.939500000000000113e-01 2.137400000000000133e-01 1.152150000000000007e+00 2.173080000000000123e+00 5.004780000000000229e+00 3.444570000000000132e+00 2.121080000000000076e+00 1.643420000000000103e+00 5.737000000000000099e+00 3.546250000000000124e+00 2.287310000000000176e+00 3.444529999999999870e+00 3.823220000000000063e+00 4.360850000000000115e+00 5.736979999999999968e+00 4.971470000000000056e+00 2.931210000000000093e+00 1.152130000000000098e+00 3.269330000000000069e+00 2.137400000000000133e-01 1.152139999999999942e+00 5.248450000000000060e+00 5.004789999999999850e+00 3.444580000000000197e+00 5.196439999999999948e+00 1.643410000000000037e+00 5.737000000000000099e+00 6.621590000000000309e+00 2.287290000000000045e+00 3.444539999999999935e+00 6.898600000000000065e+00 4.360859999999999737e+00 5.736979999999999968e+00 8.046829999999999927e+00 2.931210000000000093e+00 1.152139999999999942e+00 6.344680000000000319e+00 2.137400000000000133e-01 1.152139999999999942e+00 8.323800000000000310e+00 5.004789999999999850e+00 3.444560000000000066e+00 8.271800000000000708e+00 1.643410000000000037e+00 5.736989999999999590e+00 7.998499999999999499e-01 7.722209999999999575e+00 3.444529999999999870e+00 5.229300000000000059e-01 5.648649999999999949e+00 1.152139999999999942e+00 2.450060000000000127e+00 7.078339999999999854e+00 5.737000000000000099e+00 3.875210000000000043e+00 7.722209999999999575e+00 3.444539999999999935e+00 3.598300000000000054e+00 5.648649999999999949e+00 1.152150000000000007e+00 5.525400000000000311e+00 7.078339999999999854e+00 5.737009999999999721e+00 6.950560000000000294e+00 7.722220000000000084e+00 3.444529999999999870e+00 6.673659999999999926e+00 5.648649999999999949e+00 1.152150000000000007e+00 8.600770000000000692e+00 7.078339999999999854e+00 5.737000000000000099e+00 1.195959999999999912e+00 3.242459999999999898e+00 1.036069999999999958e+01 2.621189999999999909e+00 3.886369999999999880e+00 8.068289999999999296e+00 9.190399999999999681e-01 1.168900000000000050e+00 8.068310000000000315e+00 2.898159999999999847e+00 5.959929999999999950e+00 1.036073000000000022e+01 4.271329999999999849e+00 3.242449999999999832e+00 1.036068999999999996e+01 5.696550000000000225e+00 3.886359999999999815e+00 8.068289999999999296e+00 3.994400000000000173e+00 1.168900000000000050e+00 8.068310000000000315e+00 5.973519999999999719e+00 5.959929999999999950e+00 1.036072000000000060e+01 7.346689999999999721e+00 3.242449999999999832e+00 1.036069999999999958e+01 8.771929999999999339e+00 3.886369999999999880e+00 8.068289999999999296e+00 7.069749999999999979e+00 1.168909999999999894e+00 8.068300000000000693e+00 9.048880000000000479e+00 5.959939999999999571e+00 1.036073000000000022e+01 1.524920000000000053e+00 8.677369999999999806e+00 1.036068999999999996e+01 1.248010000000000064e+00 6.603830000000000311e+00 8.068300000000000693e+00 4.600299999999999834e+00 8.677379999999999427e+00 1.036069999999999958e+01 1.005094000000000065e+01 8.988659999999999428e+00 1.956932000000000116e+01 8.123810000000000642e+00 7.558970000000000411e+00 1.498446000000000033e+01 8.400729999999999364e+00 9.632540000000000546e+00 1.727685999999999922e+01 6.975570000000000270e+00 8.988659999999999428e+00 1.956931000000000154e+01 5.048449999999999882e+00 7.558980000000000032e+00 1.498446000000000033e+01 5.325370000000000381e+00 9.632540000000000546e+00 1.727685999999999922e+01 1.069904999999999973e+01 5.316019999999999968e+00 1.265314000000000050e+01 2.846150000000000180e+00 2.598570000000000046e+00 1.265315999999999974e+01 4.548309999999999853e+00 5.316019999999999968e+00 1.265311999999999948e+01 5.921520000000000117e+00 2.598580000000000112e+00 1.265315999999999974e+01 7.623669999999999725e+00 5.316010000000000346e+00 1.265313000000000088e+01 8.996890000000000498e+00 2.598570000000000046e+00 1.265315999999999974e+01 3.175129999999999786e+00 8.033490000000000464e+00 1.265316999999999936e+01 6.250490000000000101e+00 8.033500000000000085e+00 1.265315999999999974e+01 9.325850000000000861e+00 8.033500000000000085e+00 1.265315999999999974e+01 1.921030000000000015e+00 4.197610000000000063e+00 1.727685999999999922e+01 1.142411000000000065e+01 6.271180000000000199e+00 1.956928999999999874e+01 3.346280000000000143e+00 4.841529999999999667e+00 1.498445000000000071e+01 1.644120000000000026e+00 2.124060000000000059e+00 1.498445000000000071e+01 3.623240000000000016e+00 6.915099999999999802e+00 1.727689000000000163e+01 3.571239999999999970e+00 3.553729999999999833e+00 1.956932000000000116e+01 4.996400000000000396e+00 4.197619999999999685e+00 1.727684999999999960e+01 5.273390000000000022e+00 6.271180000000000199e+00 1.956928999999999874e+01 6.421630000000000393e+00 4.841520000000000046e+00 1.498446999999999996e+01 4.719479999999999897e+00 2.124049999999999994e+00 1.498446000000000033e+01 6.698599999999999888e+00 6.915090000000000181e+00 1.727687999999999846e+01 6.646600000000000286e+00 3.553729999999999833e+00 1.956931000000000154e+01 8.071749999999999758e+00 4.197610000000000063e+00 1.727684999999999960e+01 8.348760000000000403e+00 6.271169999999999689e+00 1.956929999999999836e+01 9.497009999999999508e+00 4.841540000000000177e+00 1.498446000000000033e+01 7.794850000000000279e+00 2.124039999999999928e+00 1.498446999999999996e+01 9.773970000000000269e+00 6.915090000000000181e+00 1.727689000000000163e+01 9.721970000000000667e+00 3.553729999999999833e+00 1.956933000000000078e+01 2.250010000000000066e+00 9.632540000000000546e+00 1.727684999999999960e+01 1.973090000000000011e+00 7.558970000000000411e+00 1.498446999999999996e+01 3.900199999999999889e+00 8.988659999999999428e+00 1.956932000000000116e+01 9.706810000000000827e+00 1.682977999999999952e+01 1.036073000000000022e+01 7.727699999999999569e+00 1.203874000000000066e+01 8.068310000000000315e+00 9.429859999999999687e+00 1.475622000000000078e+01 8.068300000000000693e+00 1.030292000000000030e+01 9.795769999999999200e+00 5.736970000000000347e+00 2.225070000000000103e+00 8.366139999999999688e+00 1.152130000000000098e+00 2.502050000000000107e+00 1.043970999999999982e+01 3.444570000000000132e+00 4.152190000000000047e+00 9.795790000000000219e+00 5.736979999999999968e+00 5.300440000000000040e+00 8.366139999999999688e+00 1.152130000000000098e+00 5.577410000000000423e+00 1.043970999999999982e+01 3.444560000000000066e+00 7.227560000000000429e+00 9.795780000000000598e+00 5.736970000000000347e+00 8.375809999999999533e+00 8.366139999999999688e+00 1.152139999999999942e+00 8.652760000000000673e+00 1.043970999999999982e+01 3.444580000000000197e+00 1.128819999999999935e+00 1.315713000000000044e+01 3.444529999999999870e+00 1.063189000000000028e+01 1.523070000000000057e+01 5.736959999999999837e+00 2.554060000000000219e+00 1.380105000000000004e+01 1.152130000000000098e+00 8.518900000000000361e-01 1.108357999999999954e+01 1.152139999999999942e+00 2.831010000000000026e+00 1.587462000000000018e+01 3.444570000000000132e+00 2.779009999999999980e+00 1.251326000000000072e+01 5.737009999999999721e+00 4.204170000000000407e+00 1.315714000000000006e+01 3.444519999999999804e+00 4.481169999999999654e+00 1.523070000000000057e+01 5.736970000000000347e+00 5.629410000000000025e+00 1.380105000000000004e+01 1.152150000000000007e+00 3.927249999999999908e+00 1.108358999999999916e+01 1.152150000000000007e+00 5.906369999999999898e+00 1.587462999999999980e+01 3.444570000000000132e+00 5.854379999999999917e+00 1.251324999999999932e+01 5.737000000000000099e+00 7.279539999999999900e+00 1.315713000000000044e+01 3.444539999999999935e+00 7.556519999999999904e+00 1.523070000000000057e+01 5.736979999999999968e+00 8.704769999999999897e+00 1.380105000000000004e+01 1.152139999999999942e+00 7.002620000000000289e+00 1.108357999999999954e+01 1.152150000000000007e+00 8.981730000000000658e+00 1.587462999999999980e+01 3.444560000000000066e+00 8.929740000000000677e+00 1.251327000000000034e+01 5.737009999999999721e+00 2.950149999999999828e+00 9.321300000000000807e+00 8.068289999999999296e+00 3.227129999999999832e+00 1.139484999999999992e+01 1.036072000000000060e+01 6.025520000000000209e+00 9.321300000000000807e+00 8.068300000000000693e+00 6.302480000000000082e+00 1.139484999999999992e+01 1.036072000000000060e+01 9.100880000000000081e+00 9.321300000000000807e+00 8.068300000000000693e+00 9.377850000000000463e+00 1.139485999999999954e+01 1.036073000000000022e+01 1.853890000000000038e+00 1.411231000000000080e+01 1.036068999999999996e+01 3.279129999999999878e+00 1.475622000000000078e+01 8.068310000000000315e+00 1.576980000000000048e+00 1.203872999999999927e+01 8.068310000000000315e+00 3.556090000000000195e+00 1.682977999999999952e+01 1.036073000000000022e+01 4.929260000000000197e+00 1.411229999999999940e+01 1.036069999999999958e+01 6.354499999999999815e+00 1.475622000000000078e+01 8.068300000000000693e+00 4.652350000000000207e+00 1.203872999999999927e+01 8.068300000000000693e+00 6.631459999999999688e+00 1.682978999999999914e+01 1.036073000000000022e+01 8.004619999999999180e+00 1.411229999999999940e+01 1.036068999999999996e+01 1.037991000000000064e+01 1.442357999999999940e+01 1.956932000000000116e+01 1.043188999999999922e+01 1.778493999999999886e+01 1.727687999999999846e+01 8.452780000000000626e+00 1.299390999999999963e+01 1.498446999999999996e+01 1.015493999999999986e+01 1.571137000000000050e+01 1.498446999999999996e+01 9.006700000000000372e+00 1.714101000000000141e+01 1.956928999999999874e+01 8.729689999999999728e+00 1.506746000000000052e+01 1.727685999999999922e+01 1.102801000000000009e+01 1.075093999999999994e+01 1.265314000000000050e+01 4.877270000000000216e+00 1.075094999999999956e+01 1.265314000000000050e+01 7.952650000000000219e+00 1.075094999999999956e+01 1.265314000000000050e+01 1.135697000000000045e+01 1.618587000000000131e+01 1.265313000000000088e+01 3.504090000000000149e+00 1.346842000000000006e+01 1.265316999999999936e+01 5.206249999999999822e+00 1.618586000000000169e+01 1.265313000000000088e+01 6.579460000000000086e+00 1.346842000000000006e+01 1.265315999999999974e+01 8.281599999999999184e+00 1.618587000000000131e+01 1.265313000000000088e+01 9.654820000000000846e+00 1.346842999999999968e+01 1.265315999999999974e+01 1.175309000000000026e+01 1.170608999999999966e+01 1.956928999999999874e+01 3.675240000000000062e+00 1.027646000000000015e+01 1.498446000000000033e+01 3.952199999999999935e+00 1.235000999999999927e+01 1.727687999999999846e+01 5.602360000000000007e+00 1.170608999999999966e+01 1.956927999999999912e+01 6.750609999999999999e+00 1.027645000000000053e+01 1.498445000000000071e+01 7.027569999999999872e+00 1.235002000000000066e+01 1.727689000000000163e+01 8.677720000000000766e+00 1.170611000000000068e+01 1.956928999999999874e+01 9.825969999999999871e+00 1.027645000000000053e+01 1.498446999999999996e+01 1.010293000000000063e+01 1.235002000000000066e+01 1.727689000000000163e+01 2.578969999999999985e+00 1.506744999999999912e+01 1.727684999999999960e+01 1.208205000000000062e+01 1.714101000000000141e+01 1.956927999999999912e+01 4.004220000000000113e+00 1.571138000000000012e+01 1.498445000000000071e+01 2.302059999999999995e+00 1.299390000000000001e+01 1.498446000000000033e+01 4.281179999999999986e+00 1.778493999999999886e+01 1.727687999999999846e+01 4.229180000000000383e+00 1.442357999999999940e+01 1.956933000000000078e+01 5.654340000000000366e+00 1.506744999999999912e+01 1.727683999999999997e+01 5.931339999999999613e+00 1.714101000000000141e+01 1.956927999999999912e+01 7.079570000000000363e+00 1.571137000000000050e+01 1.498446000000000033e+01 5.377419999999999867e+00 1.299390000000000001e+01 1.498446000000000033e+01 7.356539999999999857e+00 1.778493999999999886e+01 1.727689000000000163e+01 7.304529999999999745e+00 1.442357999999999940e+01 1.956932000000000116e+01