-2.774161403049999990e+03
-2.774146938249999948e+03
-2.774112620930000048e+03
-2.774058680539999841e+03
-2.773985517170000094e+03
-2.773893361840000125e+03
-2.773782542399999784e+03
-2.773653171020000173e+03
-2.773505430140000044e+03
-2.773339536510000016e+03
