-1.115172999999999970e+00 -7.426019999999999843e-01 1.489125999999999950e+00 1.114718000000000098e+00 7.420909999999999451e-01 -1.490078000000000014e+00 1.115094000000000030e+00 7.426840000000000108e-01 -1.489943999999999935e+00 -1.114028999999999936e+00 -7.428810000000000136e-01 1.489530000000000021e+00 1.115259000000000000e+00 7.415000000000000480e-01 -1.489619000000000026e+00 1.115712000000000037e+00 7.424479999999999968e-01 -1.489811999999999914e+00 -1.115092999999999890e+00 -7.426760000000000028e-01 1.489740000000000064e+00 1.114962999999999926e+00 7.416319999999999579e-01 -1.489562999999999970e+00 1.114589000000000052e+00 7.420830000000000481e-01 -1.489357999999999960e+00 -1.114330000000000043e+00 -7.415260000000000185e-01 1.490000999999999909e+00 1.114768999999999899e+00 7.415049999999999697e-01 -1.489646000000000026e+00 -1.115442999999999962e+00 -7.416070000000000162e-01 1.489568000000000003e+00 1.114303000000000043e+00 7.416890000000000427e-01 -1.490391000000000021e+00 -1.115096000000000087e+00 -7.421699999999999964e-01 1.489476999999999940e+00 1.114618000000000109e+00 7.417340000000000044e-01 -1.489673999999999943e+00 1.114791000000000087e+00 7.423689999999999456e-01 -1.489646999999999943e+00 1.115058000000000105e+00 7.426420000000000243e-01 -1.489527999999999963e+00 1.115567999999999893e+00 7.414770000000000527e-01 -1.489252000000000020e+00 1.115806000000000076e+00 7.421619999999999884e-01 -1.489541000000000004e+00 1.114956000000000058e+00 7.418609999999999927e-01 -1.489152999999999949e+00 1.114702999999999999e+00 7.420259999999999634e-01 -1.489193999999999907e+00 1.114727000000000023e+00 7.417839999999999989e-01 -1.489406000000000008e+00 1.114562000000000053e+00 7.416179999999999994e-01 -1.490210999999999952e+00 1.114509999999999890e+00 7.422090000000000076e-01 -1.489487000000000005e+00 -1.115129999999999955e+00 -7.424509999999999721e-01 1.490051999999999932e+00 -1.114894000000000052e+00 -7.424939999999999873e-01 1.489894000000000052e+00 -1.115156000000000036e+00 -7.419390000000000152e-01 1.489818000000000087e+00 -1.115223999999999993e+00 -7.427359999999999518e-01 1.489414999999999933e+00 -1.113979000000000052e+00 -7.423929999999999696e-01 1.489643999999999968e+00 -1.115224999999999911e+00 -7.420919999999999739e-01 1.489845000000000086e+00 -1.114484000000000030e+00 -7.417909999999999782e-01 1.490240999999999927e+00 -1.115053999999999990e+00 -7.412659999999999805e-01 1.489347999999999894e+00 -1.115088999999999997e+00 -7.423039999999999639e-01 1.489522000000000013e+00 -1.115377999999999981e+00 -7.421940000000000204e-01 1.489559999999999995e+00 1.115188000000000068e+00 7.421940000000000204e-01 -1.489808000000000021e+00 1.115000999999999909e+00 7.432959999999999567e-01 -1.489433000000000007e+00 -1.113955999999999946e+00 -7.422360000000000069e-01 1.489759999999999973e+00 1.115491000000000010e+00 7.418069999999999942e-01 -1.488852000000000064e+00 1.115912000000000015e+00 7.426289999999999836e-01 -1.489352000000000009e+00 -1.115301000000000098e+00 -7.426230000000000331e-01 1.490097999999999923e+00 1.114959000000000033e+00 7.419519999999999449e-01 -1.488904999999999923e+00 1.114641999999999911e+00 7.426549999999999541e-01 -1.488960999999999979e+00 -1.114244999999999930e+00 -7.421900000000000164e-01 1.489737000000000089e+00 1.114821999999999980e+00 7.416460000000000274e-01 -1.489556000000000102e+00 -1.115283999999999942e+00 -7.418029999999999902e-01 1.489195000000000046e+00 1.114503000000000021e+00 7.413509999999999822e-01 -1.490445000000000020e+00 -1.115223000000000075e+00 -7.429149999999999920e-01 1.489319999999999977e+00 1.114624000000000059e+00 7.415429999999999522e-01 -1.489575000000000093e+00 -1.114994000000000041e+00 -7.420299999999999674e-01 1.490151000000000003e+00 -1.114943000000000017e+00 -7.423140000000000294e-01 1.490075999999999956e+00 -1.115199000000000051e+00 -7.421140000000000514e-01 1.490261999999999976e+00 -1.115061000000000080e+00 -7.418670000000000542e-01 1.490019999999999900e+00 -1.114918999999999993e+00 -7.419529999999999736e-01 1.489935000000000009e+00 -1.114977000000000107e+00 -7.414460000000000495e-01 1.490010999999999974e+00 1.115671000000000079e+00 7.426340000000000163e-01 -1.489387999999999934e+00 1.114977000000000107e+00 7.424079999999999568e-01 -1.489314999999999944e+00 1.114953000000000083e+00 7.430339999999999723e-01 -1.489745000000000097e+00 -1.114230000000000054e+00 -7.426610000000000156e-01 1.489918000000000076e+00 -1.115280000000000049e+00 -7.422140000000000404e-01 1.489681000000000033e+00 1.114489000000000063e+00 7.414579999999999504e-01 -1.490253000000000050e+00 1.115045999999999982e+00 7.418519999999999559e-01 -1.489263000000000003e+00 -1.115212000000000092e+00 -7.422760000000000469e-01 1.490064999999999973e+00 -1.114665000000000017e+00 -7.416949999999999932e-01 1.490189999999999904e+00 1.114732999999999974e+00 7.420660000000000034e-01 -1.489638999999999935e+00 1.114784999999999915e+00 7.421010000000000106e-01 -1.490048000000000039e+00 -1.115275999999999934e+00 -7.426160000000000538e-01 1.489692999999999934e+00 -1.115348999999999924e+00 -7.414779999999999704e-01 1.489394000000000107e+00 1.114735999999999949e+00 7.416070000000000162e-01 -1.489635000000000042e+00 1.115134999999999987e+00 7.415659999999999474e-01 -1.489292000000000060e+00 1.115884000000000098e+00 7.426449999999999996e-01 -1.489684000000000008e+00 1.114970000000000017e+00 7.423279999999999879e-01 -1.489332000000000100e+00 1.115153999999999979e+00 7.429419999999999913e-01 -1.489957999999999894e+00 1.114603000000000010e+00 7.412649999999999517e-01 -1.490186000000000011e+00 1.114770000000000039e+00 7.417019999999999724e-01 -1.489430999999999949e+00 1.114721000000000073e+00 7.414859999999999784e-01 -1.489497999999999989e+00 1.115024999999999933e+00 7.422020000000000284e-01 -1.490442000000000045e+00 1.114748999999999990e+00 7.415460000000000385e-01 -1.489411999999999958e+00 1.115316999999999892e+00 7.415620000000000545e-01 -1.489697999999999967e+00 -1.115113999999999939e+00 -7.416850000000000387e-01 1.490407999999999955e+00 -1.115291000000000032e+00 -7.416059999999999874e-01 1.490380999999999956e+00 -1.114848000000000061e+00 -7.422400000000000109e-01 1.490161999999999987e+00 -1.114219000000000070e+00 -7.427610000000000046e-01 1.489479999999999915e+00 -1.115174000000000110e+00 -7.422100000000000364e-01 1.489643999999999968e+00 -1.115131000000000094e+00 -7.426049999999999596e-01 1.489525999999999906e+00 -1.114476000000000022e+00 -7.417489999999999917e-01 1.490235999999999894e+00 -1.115153999999999979e+00 -7.424920000000000408e-01 1.489208000000000087e+00 -1.115240999999999927e+00 -7.414399999999999880e-01 1.489519999999999955e+00 1.115890999999999966e+00 7.421229999999999771e-01 -1.489505999999999997e+00 1.114913000000000043e+00 7.417770000000000197e-01 -1.489332000000000100e+00 1.115000999999999909e+00 7.427770000000000206e-01 -1.489986000000000033e+00 -1.114052999999999960e+00 -7.428550000000000431e-01 1.489257000000000053e+00 -1.115178999999999920e+00 -7.420269999999999921e-01 1.489452999999999916e+00 1.114478000000000080e+00 7.414939999999999864e-01 -1.490267999999999926e+00 1.114710000000000090e+00 7.418609999999999927e-01 -1.489252999999999938e+00 -1.115172000000000052e+00 -7.422549999999999981e-01 1.489198000000000022e+00 -1.114497000000000071e+00 -7.415230000000000432e-01 1.490108999999999906e+00 1.114754999999999940e+00 7.418759999999999799e-01 -1.489481000000000055e+00 1.114813999999999972e+00 7.420080000000000009e-01 -1.489956000000000058e+00 -1.115196999999999994e+00 -7.423809999999999576e-01 1.489011000000000084e+00 -1.115207000000000059e+00 -7.413269999999999582e-01 1.489244999999999930e+00 1.114727000000000023e+00 7.418329999999999647e-01 -1.489440000000000097e+00 1.115455000000000085e+00 7.417599999999999749e-01 -1.489551000000000069e+00 -1.115169000000000077e+00 -7.414990000000000192e-01 1.490086000000000022e+00 -1.115139000000000102e+00 -7.420590000000000241e-01 1.490402000000000005e+00 -1.114768999999999899e+00 -7.422520000000000229e-01 1.490051999999999932e+00 -1.115299999999999958e+00 -7.419249999999999456e-01 1.489549000000000012e+00 -1.115393000000000079e+00 -7.420619999999999994e-01 1.489770999999999956e+00 -1.114589999999999970e+00 -7.425599999999999978e-01 1.489614999999999911e+00 -3.030400000000000107e-02 5.889809999999999768e-01 4.895490000000000119e-01 2.369999999999999874e-04 1.620000000000000075e-04 1.579999999999999916e-04 -3.050299999999999886e-02 5.884129999999999638e-01 4.894830000000000014e-01 2.210000000000000050e-04 -4.850000000000000253e-04 -2.469999999999999865e-04 3.017600000000000143e-02 -5.873800000000000132e-01 -4.890660000000000007e-01 -3.002399999999999861e-02 5.863949999999999996e-01 4.876170000000000226e-01 -3.022299999999999986e-02 5.875399999999999512e-01 4.873239999999999794e-01 2.149999999999999947e-04 -8.649999999999999920e-04 -5.090000000000000123e-04 3.020400000000000168e-02 -5.885730000000000128e-01 -4.889930000000000110e-01 1.160000000000000007e-04 -8.229999999999999469e-04 -2.480000000000000108e-04 3.019900000000000015e-02 -5.871840000000000392e-01 -4.889870000000000050e-01 -2.983500000000000041e-02 5.864310000000000356e-01 4.873520000000000074e-01 -3.058100000000000054e-02 5.874690000000000190e-01 4.880829999999999891e-01 3.119999999999999944e-04 -1.020999999999999989e-03 -3.089999999999999756e-04 2.931599999999999831e-02 -5.876660000000000217e-01 -4.888540000000000108e-01 3.829999999999999854e-04 8.399999999999999535e-05 -2.290000000000000098e-04 2.941300000000000164e-02 -5.876249999999999529e-01 -4.889539999999999997e-01 -3.016599999999999837e-02 5.863730000000000331e-01 4.880849999999999911e-01 -3.034099999999999991e-02 5.873500000000000387e-01 4.875599999999999934e-01 6.600000000000000506e-05 -8.710000000000000294e-04 -9.680000000000000019e-04 2.978899999999999951e-02 -5.882260000000000266e-01 -4.892500000000000182e-01 -1.000000000000000082e-05 6.949999999999999798e-04 3.899999999999999929e-05 -3.025299999999999864e-02 5.871960000000000512e-01 4.882560000000000233e-01 2.965399999999999980e-02 -5.860849999999999671e-01 -4.898429999999999729e-01 1.720000000000000066e-04 9.619999999999999645e-04 2.120000000000000031e-04 -3.035200000000000051e-02 5.868470000000000075e-01 4.879749999999999921e-01 2.960199999999999984e-02 -5.870800000000000463e-01 -4.897199999999999886e-01 5.050000000000000235e-04 -2.900000000000000017e-05 5.410000000000000312e-04 -3.001399999999999901e-02 5.873720000000000052e-01 4.884249999999999980e-01 2.995899999999999952e-02 -5.869140000000000468e-01 -4.900180000000000091e-01 4.339999999999999782e-04 -1.039999999999999936e-04 1.219999999999999974e-04 -2.980100000000000110e-02 5.868360000000000243e-01 4.889740000000000197e-01 -2.999800000000000036e-02 5.867200000000000193e-01 4.875889999999999946e-01 -1.010000000000000020e-04 3.570000000000000040e-04 -3.550000000000000096e-04 -2.550000000000000183e-04 1.830000000000000029e-04 6.299999999999999990e-05 -2.985399999999999859e-02 5.871920000000000472e-01 4.884760000000000213e-01 -3.012000000000000094e-02 5.867639999999999523e-01 4.881770000000000276e-01 -1.479999999999999925e-04 1.939999999999999993e-04 2.750000000000000166e-04 -1.900000000000000105e-05 9.489999999999999738e-04 -2.059999999999999928e-04 -3.014899999999999872e-02 5.869569999999999510e-01 4.892560000000000242e-01 -3.020899999999999974e-02 5.865839999999999943e-01 4.879589999999999761e-01 7.999999999999999638e-06 -6.600000000000000506e-05 -3.200000000000000262e-04 1.669999999999999935e-04 4.970000000000000459e-04 -2.559999999999999884e-04 -2.993200000000000027e-02 5.887539999999999996e-01 4.891590000000000105e-01 -9.299999999999999727e-05 8.999999999999999754e-04 -2.809999999999999998e-04 3.006299999999999945e-02 -5.883709999999999773e-01 -4.905880000000000241e-01 -3.008699999999999916e-02 5.886179999999999746e-01 4.886380000000000168e-01 5.829999999999999679e-04 -9.229999999999999923e-04 -7.799999999999999859e-04 2.967300000000000146e-02 -5.889489999999999448e-01 -4.900399999999999756e-01 -3.023800000000000099e-02 5.878700000000000037e-01 4.884669999999999845e-01 -1.200000000000000030e-04 6.000000000000000152e-05 -1.325000000000000006e-03 2.991500000000000062e-02 -5.865439999999999543e-01 -4.890240000000000142e-01 3.019099999999999909e-02 -5.873220000000000107e-01 -4.889609999999999790e-01 2.996000000000000052e-02 -5.867329999999999490e-01 -4.884609999999999785e-01 2.932900000000000090e-02 -5.867850000000000010e-01 -4.886699999999999933e-01 2.961099999999999843e-02 -5.867529999999999690e-01 -4.887909999999999755e-01 2.982699999999999935e-02 -5.872220000000000217e-01 -4.890809999999999880e-01 2.942499999999999977e-02 -5.866190000000000015e-01 -4.895300000000000207e-01 2.920199999999999879e-02 -5.876749999999999474e-01 -4.889850000000000030e-01 2.976000000000000173e-02 -5.874970000000000470e-01 -4.895059999999999967e-01 4.299999999999999894e-04 1.450000000000000009e-04 5.779999999999999548e-04 3.044699999999999837e-02 -5.877510000000000234e-01 -4.895499999999999852e-01 -3.024200000000000152e-02 5.875219999999999887e-01 4.893040000000000167e-01 -3.034999999999999851e-02 5.876350000000000184e-01 4.888089999999999935e-01 6.299999999999999990e-05 -7.730000000000000326e-04 -8.080000000000000160e-04 3.005000000000000032e-02 -5.878100000000000547e-01 -4.889749999999999930e-01 -2.000000000000000164e-05 1.200000000000000030e-04 3.440000000000000132e-04 3.016599999999999837e-02 -5.877890000000000059e-01 -4.893759999999999777e-01 -2.991999999999999868e-02 5.878719999999999501e-01 4.886280000000000068e-01 -3.032100000000000073e-02 5.878259999999999597e-01 4.892210000000000170e-01 8.700000000000000051e-05 -8.819999999999999715e-04 -2.799999999999999755e-04 2.949200000000000085e-02 -5.869849999999999790e-01 -4.887270000000000225e-01 3.959999999999999762e-04 8.419999999999999750e-04 9.669999999999999776e-04 2.979000000000000051e-02 -5.879940000000000166e-01 -4.894950000000000134e-01 -3.011600000000000041e-02 5.875970000000000359e-01 4.894749999999999934e-01 -3.067100000000000035e-02 5.877879999999999772e-01 4.888890000000000180e-01 -3.159999999999999832e-04 -4.180000000000000230e-04 -8.970000000000000109e-04 2.992200000000000068e-02 -5.873140000000000027e-01 -4.896090000000000164e-01 1.019999999999999992e-04 -6.600000000000000506e-05 -1.085999999999999943e-03 -2.999999999999999889e-02 5.883300000000000196e-01 4.883219999999999783e-01 2.966600000000000140e-02 -5.878370000000000539e-01 -4.908489999999999798e-01 -2.020000000000000040e-04 9.000000000000000567e-05 -1.680999999999999986e-03 -2.993200000000000027e-02 5.873629999999999685e-01 4.883120000000000238e-01 -3.016399999999999984e-02 5.867599999999999483e-01 4.870659999999999989e-01 2.984200000000000047e-02 -5.863439999999999763e-01 -4.879160000000000164e-01 -3.052799999999999958e-02 5.872929999999999540e-01 4.888959999999999972e-01 1.060000000000000016e-04 1.069000000000000072e-03 7.749999999999999728e-04 3.033699999999999938e-02 -5.870779999999999887e-01 -4.886940000000000173e-01 -2.986499999999999919e-02 5.873730000000000340e-01 4.889029999999999765e-01 1.259999999999999998e-04 1.100000000000000039e-04 9.539999999999999869e-04 3.009900000000000075e-02 -5.868170000000000330e-01 -4.881380000000000163e-01 -3.033599999999999838e-02 5.872950000000000115e-01 4.892170000000000130e-01 1.710000000000000094e-04 5.050000000000000235e-04 -1.200000000000000030e-04 3.359999999999999814e-04 2.120000000000000031e-04 7.789999999999999616e-04 2.960799999999999890e-02 -5.882650000000000379e-01 -4.878870000000000151e-01 -3.039100000000000135e-02 5.889990000000000503e-01 4.879780000000000229e-01 -2.997899999999999870e-02 5.881119999999999681e-01 4.884939999999999838e-01 3.469999999999999777e-04 -2.460000000000000164e-04 -7.560000000000000530e-04 2.962599999999999956e-02 -5.875869999999999704e-01 -4.881449999999999956e-01 3.449999999999999833e-04 -9.399999999999999448e-05 6.939999999999999555e-04 2.996000000000000052e-02 -5.881399999999999961e-01 -4.883560000000000123e-01 -3.000299999999999842e-02 5.888980000000000325e-01 4.877440000000000109e-01 -2.991100000000000009e-02 5.881319999999999881e-01 4.892139999999999822e-01 8.500000000000000611e-05 -5.199999999999999680e-05 -1.031000000000000015e-03 2.987199999999999925e-02 -5.872659999999999547e-01 -4.884160000000000168e-01 4.719999999999999803e-04 2.269999999999999882e-04 1.219999999999999974e-04 2.960499999999999937e-02 -5.872330000000000050e-01 -4.887389999999999790e-01 -3.055499999999999883e-02 5.883540000000000436e-01 4.879220000000000224e-01 -3.001399999999999901e-02 5.882119999999999571e-01 4.889700000000000157e-01 -2.599999999999999840e-05 2.359999999999999902e-04 -9.219999999999999680e-04 2.979599999999999957e-02 -5.873000000000000442e-01 -4.881139999999999923e-01 -3.009200000000000069e-02 5.880490000000000439e-01 4.889129999999999865e-01 -9.000000000000000228e-06 1.179999999999999951e-04 -4.510000000000000120e-04 -3.017500000000000043e-02 5.882300000000000306e-01 4.887500000000000178e-01 -5.700000000000000314e-05 -3.780000000000000265e-04 -6.419999999999999925e-04 -3.033399999999999985e-02 5.882629999999999804e-01 4.892199999999999882e-01 -2.139999999999999975e-04 -5.069999999999999637e-04 -1.136000000000000074e-03 6.260000000000000373e-04 -1.418999999999999906e-03 -5.689999999999999529e-04 -2.980899999999999869e-02 5.873990000000000045e-01 4.874720000000000164e-01 -2.976499999999999979e-02 5.875190000000000135e-01 4.877679999999999794e-01 3.449999999999999833e-04 -6.520000000000000188e-04 -1.085000000000000027e-03 2.169999999999999891e-04 -1.090999999999999956e-03 -1.348000000000000023e-03 -2.993900000000000033e-02 5.870020000000000238e-01 4.873230000000000062e-01 -2.985300000000000106e-02 5.872500000000000497e-01 4.884669999999999845e-01 -9.299999999999999727e-05 -2.959999999999999849e-04 -1.737999999999999962e-03 1.340000000000000045e-04 -1.157999999999999958e-03 -1.007000000000000083e-03 3.010499999999999982e-02 -5.862730000000000441e-01 -4.893359999999999932e-01 -5.000000000000000240e-05 7.209999999999999612e-04 3.869999999999999742e-04 -2.997400000000000064e-02 5.865280000000000493e-01 4.881820000000000048e-01 -3.034500000000000045e-02 5.871579999999999577e-01 4.880599999999999938e-01 3.002200000000000008e-02 -5.856569999999999832e-01 -4.886480000000000268e-01 5.609999999999999752e-04 -6.220000000000000485e-04 3.999999999999999819e-06 2.948299999999999879e-02 -5.874430000000000485e-01 -4.890939999999999732e-01 2.998599999999999877e-02 -5.879429999999999934e-01 -4.892420000000000102e-01 2.999100000000000030e-02 -5.882709999999999884e-01 -4.889379999999999837e-01 2.980299999999999963e-02 -5.881499999999999506e-01 -4.885140000000000038e-01 2.970799999999999830e-02 -5.880199999999999871e-01 -4.892400000000000082e-01 3.024299999999999905e-02 -5.876839999999999842e-01 -4.890149999999999775e-01 2.993600000000000080e-02 -5.877580000000000027e-01 -4.893069999999999919e-01 2.996599999999999958e-02 -5.870790000000000175e-01 -4.889850000000000030e-01 3.011600000000000041e-02 -5.879189999999999694e-01 -4.891420000000000212e-01 2.953199999999999922e-02 -5.869870000000000365e-01 -4.897859999999999991e-01 -3.026099999999999970e-02 5.867179999999999618e-01 4.880669999999999731e-01 -1.510000000000000112e-04 2.269999999999999882e-04 -6.459999999999999814e-04 3.020799999999999874e-02 -5.875780000000000447e-01 -4.898989999999999734e-01 -3.012000000000000094e-02 5.869400000000000173e-01 4.879240000000000244e-01 1.279999999999999942e-04 -5.640000000000000482e-04 -1.147000000000000016e-03 3.046199999999999949e-02 -5.880140000000000366e-01 -4.893989999999999729e-01 -3.007900000000000157e-02 5.869379999999999598e-01 4.883060000000000178e-01 1.789999999999999870e-04 -5.559999999999999621e-04 -1.315999999999999896e-03 5.330000000000000536e-04 -3.089999999999999756e-04 2.770000000000000110e-04 2.989199999999999843e-02 -5.868120000000000003e-01 -4.880140000000000033e-01 -3.033900000000000138e-02 5.876529999999999809e-01 4.886300000000000088e-01 -2.978499999999999898e-02 5.867580000000000018e-01 4.880019999999999913e-01 -5.099999999999999960e-05 2.390000000000000089e-04 6.700000000000000226e-04 2.963100000000000109e-02 -5.864740000000000508e-01 -4.895590000000000219e-01 4.100000000000000047e-05 -3.719999999999999891e-04 3.199999999999999855e-05 3.000299999999999842e-02 -5.864230000000000276e-01 -4.884729999999999905e-01 -3.008200000000000110e-02 5.877000000000000002e-01 4.879919999999999813e-01 -2.993900000000000033e-02 5.866999999999999993e-01 4.884180000000000188e-01 -2.649999999999999903e-04 8.540000000000000499e-04 -2.970000000000000092e-04 3.013400000000000106e-02 -5.861739999999999728e-01 -4.893700000000000272e-01