2.351490000000000080e+00 3.159600000000000186e+00 3.007909999999999862e+00 4.314899999999999847e-01 3.912240000000000162e+00 1.425079999999999902e+00 1.999719999999999942e+00 1.104770000000000030e+00 1.425100000000000033e+00 5.796619999999999884e+00 3.159590000000000121e+00 3.007909999999999862e+00 3.876630000000000020e+00 3.912240000000000162e+00 1.425070000000000059e+00 5.444840000000000124e+00 1.104789999999999939e+00 1.425100000000000033e+00 9.241749999999999687e+00 3.159600000000000186e+00 3.007909999999999862e+00 7.321769999999999889e+00 3.912230000000000096e+00 1.425059999999999993e+00 8.889969999999999928e+00 1.104770000000000030e+00 1.425100000000000033e+00 1.111870000000000047e+01 5.967080000000000162e+00 3.007919999999999927e+00 2.660229999999999873e+00 8.774540000000000006e+00 3.007919999999999927e+00 2.308460000000000178e+00 6.719739999999999824e+00 1.425100000000000033e+00 4.228430000000000355e+00 5.967080000000000162e+00 3.007929999999999993e+00 6.105369999999999742e+00 8.774549999999999628e+00 3.007919999999999927e+00 5.753580000000000361e+00 6.719730000000000203e+00 1.425100000000000033e+00 7.673569999999999780e+00 5.967089999999999783e+00 3.007919999999999927e+00 9.550509999999999167e+00 8.774540000000000006e+00 3.007919999999999927e+00 9.198719999999999786e+00 6.719730000000000203e+00 1.425100000000000033e+00 1.134200000000000097e+00 4.435459999999999958e+00 5.875539999999999985e+00 2.702420000000000044e+00 1.627999999999999892e+00 5.875549999999999606e+00 4.579329999999999679e+00 4.435459999999999958e+00 5.875539999999999985e+00 6.147560000000000358e+00 1.627999999999999892e+00 5.875560000000000116e+00 8.024459999999999482e+00 4.435459999999999958e+00 5.875539999999999985e+00 9.592679999999999652e+00 1.627990000000000048e+00 5.875549999999999606e+00 3.011150000000000215e+00 7.242939999999999934e+00 5.875569999999999737e+00 6.456290000000000084e+00 7.242939999999999934e+00 5.875560000000000116e+00 9.901419999999999888e+00 7.242950000000000443e+00 5.875569999999999737e+00 3.054190000000000182e+00 3.682799999999999851e+00 7.458380000000000010e+00 6.499319999999999986e+00 3.682809999999999917e+00 7.458380000000000010e+00 9.944459999999999411e+00 3.682809999999999917e+00 7.458389999999999631e+00 1.182140000000000057e+01 6.490289999999999893e+00 7.458389999999999631e+00 3.362940000000000040e+00 9.297760000000000247e+00 7.458380000000000010e+00 4.931140000000000079e+00 6.490300000000000402e+00 7.458380000000000010e+00 6.808080000000000354e+00 9.297750000000000625e+00 7.458380000000000010e+00 8.376260000000000261e+00 6.490289999999999893e+00 7.458380000000000010e+00 1.025319999999999965e+01 9.297750000000000625e+00 7.458380000000000010e+00 3.756909999999999972e+00 4.206030000000000157e+00 1.190884999999999927e+01 1.836899999999999977e+00 4.958660000000000068e+00 1.032600000000000051e+01 3.405110000000000081e+00 2.151209999999999845e+00 1.032602999999999938e+01 7.202040000000000219e+00 4.206030000000000157e+00 1.190884999999999927e+01 5.282049999999999912e+00 4.958660000000000068e+00 1.032598999999999911e+01 6.850240000000000329e+00 2.151209999999999845e+00 1.032602999999999938e+01 1.064715999999999951e+01 4.206019999999999648e+00 1.190884999999999927e+01 8.727169999999999206e+00 4.958669999999999689e+00 1.032600000000000051e+01 1.029537999999999975e+01 2.151199999999999779e+00 1.032602999999999938e+01 1.252410000000000068e+01 7.013499999999999623e+00 1.190884999999999927e+01 4.065649999999999764e+00 9.820959999999999468e+00 1.190884999999999927e+01 3.713859999999999939e+00 7.766149999999999665e+00 1.032601999999999975e+01 5.633840000000000181e+00 7.013490000000000002e+00 1.190884999999999927e+01 7.510790000000000077e+00 9.820959999999999468e+00 1.190883999999999965e+01 7.158990000000000187e+00 7.766149999999999665e+00 1.032601999999999975e+01 9.078979999999999606e+00 7.013499999999999623e+00 1.190884999999999927e+01 1.095590999999999937e+01 9.820970000000000866e+00 1.190886000000000067e+01 1.060411999999999999e+01 7.766160000000000174e+00 1.032601999999999975e+01 1.173616999999999955e+01 1.719697999999999993e+01 3.007929999999999993e+00 4.845919999999999561e+00 1.719697000000000031e+01 3.007919999999999927e+00 8.291040000000000632e+00 1.719697000000000031e+01 3.007909999999999862e+00 7.402499999999999636e-01 9.527179999999999538e+00 1.425070000000000059e+00 4.185380000000000322e+00 9.527179999999999538e+00 1.425070000000000059e+00 7.630519999999999747e+00 9.527179999999999538e+00 1.425070000000000059e+00 1.142742999999999931e+01 1.158202999999999960e+01 3.007919999999999927e+00 2.968980000000000175e+00 1.438949999999999996e+01 3.007909999999999862e+00 1.048999999999999932e+00 1.514212999999999987e+01 1.425079999999999902e+00 2.617189999999999905e+00 1.233468000000000053e+01 1.425089999999999968e+00 4.537180000000000213e+00 1.158201999999999998e+01 3.007919999999999927e+00 6.414109999999999978e+00 1.438949000000000034e+01 3.007909999999999862e+00 4.494110000000000049e+00 1.514213999999999949e+01 1.425070000000000059e+00 6.062319999999999709e+00 1.233466999999999913e+01 1.425089999999999968e+00 7.982300000000000395e+00 1.158202999999999960e+01 3.007919999999999927e+00 9.859239999999999782e+00 1.438949000000000034e+01 3.007929999999999993e+00 7.939259999999999984e+00 1.514212999999999987e+01 1.425070000000000059e+00 9.507450000000000401e+00 1.233466999999999913e+01 1.425100000000000033e+00 1.442949999999999955e+00 1.005039999999999978e+01 5.875530000000000364e+00 4.888080000000000425e+00 1.005039000000000016e+01 5.875539999999999985e+00 8.333209999999999340e+00 1.005039000000000016e+01 5.875530000000000364e+00 1.751700000000000035e+00 1.566535000000000011e+01 5.875539999999999985e+00 3.319910000000000139e+00 1.285788999999999938e+01 5.875560000000000116e+00 5.196819999999999773e+00 1.566534000000000049e+01 5.875530000000000364e+00 6.765039999999999942e+00 1.285788999999999938e+01 5.875569999999999737e+00 8.641949999999999577e+00 1.566535000000000011e+01 5.875539999999999985e+00 1.021016999999999975e+01 1.285787999999999975e+01 5.875560000000000116e+00 1.243889000000000067e+01 1.772018999999999878e+01 7.458389999999999631e+00 5.548619999999999663e+00 1.772017999999999915e+01 7.458380000000000010e+00 8.993759999999999977e+00 1.772018999999999878e+01 7.458380000000000010e+00 1.213014000000000081e+01 1.210524000000000022e+01 7.458389999999999631e+00 3.671679999999999833e+00 1.491269999999999918e+01 7.458380000000000010e+00 5.239869999999999806e+00 1.210524000000000022e+01 7.458380000000000010e+00 7.116799999999999571e+00 1.491269999999999918e+01 7.458380000000000010e+00 8.685010000000000119e+00 1.210523000000000060e+01 7.458380000000000010e+00 1.056193999999999988e+01 1.491271000000000058e+01 7.458380000000000010e+00 1.314159000000000077e+01 1.824340000000000117e+01 1.190884999999999927e+01 6.251310000000000144e+00 1.824340000000000117e+01 1.190886000000000067e+01 9.696460000000000079e+00 1.824341000000000079e+01 1.190884999999999927e+01 2.145649999999999835e+00 1.057361000000000040e+01 1.032598999999999911e+01 5.590799999999999770e+00 1.057361000000000040e+01 1.032601000000000013e+01 9.035930000000000462e+00 1.057362000000000002e+01 1.032598999999999911e+01 1.283283999999999914e+01 1.262845000000000084e+01 1.190884999999999927e+01 4.374390000000000001e+00 1.543590000000000018e+01 1.190886000000000067e+01 2.454390000000000072e+00 1.618855999999999895e+01 1.032598999999999911e+01 4.022610000000000241e+00 1.338109000000000037e+01 1.032602999999999938e+01 5.942580000000000418e+00 1.262845000000000084e+01 1.190884999999999927e+01 7.819519999999999804e+00 1.543590999999999980e+01 1.190884999999999927e+01 5.899519999999999875e+00 1.618854999999999933e+01 1.032600000000000051e+01 7.467730000000000423e+00 1.338109999999999999e+01 1.032601999999999975e+01 9.387719999999999843e+00 1.262845000000000084e+01 1.190886000000000067e+01 1.126463999999999999e+01 1.543590999999999980e+01 1.190883999999999965e+01 9.344670000000000698e+00 1.618854999999999933e+01 1.032598999999999911e+01 1.091286999999999985e+01 1.338109000000000037e+01 1.032602999999999938e+01 4.529799999999999938e-01 2.132200000000000095e+00 2.216489999999999849e+00 1.111520999999999937e+01 4.171929999999999694e+00 3.659229999999999983e+00 2.003219999999999779e+00 2.899910000000000210e+00 7.738699999999999468e-01 8.028000000000000469e+00 6.230559999999999654e+00 5.224319999999999631e+00 2.329940000000000122e+00 4.939669999999999561e+00 2.216530000000000111e+00 2.347999999999999865e+00 1.364470000000000072e+00 3.659269999999999801e+00 3.898120000000000029e+00 2.132190000000000030e+00 2.216479999999999784e+00 4.224929999999999630e+00 4.171929999999999694e+00 3.659229999999999983e+00 5.448349999999999582e+00 2.899910000000000210e+00 7.738699999999999468e-01 8.354699999999999349e+00 8.270350000000000534e+00 6.666960000000000441e+00 5.775079999999999991e+00 4.939659999999999940e+00 2.216549999999999798e+00 5.793140000000000178e+00 1.364460000000000006e+00 3.659260000000000179e+00 7.343259999999999899e+00 2.132200000000000095e+00 2.216489999999999849e+00 7.670069999999999943e+00 4.171920000000000073e+00 3.659229999999999983e+00 8.893489999999999895e+00 2.899919999999999831e+00 7.738800000000000123e-01 4.582880000000000287e+00 6.230570000000000164e+00 5.224339999999999762e+00 9.220209999999999795e+00 4.939669999999999561e+00 2.216530000000000111e+00 9.238269999999999982e+00 1.364470000000000072e+00 3.659260000000000179e+00 7.617300000000000182e-01 7.747139999999999915e+00 2.216479999999999784e+00 4.350499999999999923e-01 5.707340000000000302e+00 7.738599999999999923e-01 2.656740000000000101e+00 6.979409999999999670e+00 3.659279999999999866e+00 4.206850000000000200e+00 7.747139999999999915e+00 2.216479999999999784e+00 3.880180000000000184e+00 5.707349999999999923e+00 7.738500000000000378e-01 6.101880000000000415e+00 6.979409999999999670e+00 3.659279999999999866e+00 7.651989999999999625e+00 7.747150000000000425e+00 2.216489999999999849e+00 7.325309999999999988e+00 5.707349999999999923e+00 7.738599999999999923e-01 9.547010000000000218e+00 6.979420000000000179e+00 3.659269999999999801e+00 1.155699999999999950e+00 2.655400000000000205e+00 6.666960000000000441e+00 2.705919999999999881e+00 3.423130000000000006e+00 5.224339999999999762e+00 4.909559999999999924e+00 8.270350000000000534e+00 6.666949999999999932e+00 3.032649999999999846e+00 5.462889999999999802e+00 6.667019999999999946e+00 4.600819999999999688e+00 2.655409999999999826e+00 6.666940000000000310e+00 6.151049999999999685e+00 3.423130000000000006e+00 5.224330000000000140e+00 1.137750000000000039e+00 6.230559999999999654e+00 5.224339999999999762e+00 6.477780000000000094e+00 5.462889999999999802e+00 6.666999999999999815e+00 8.045949999999999491e+00 2.655400000000000205e+00 6.666960000000000441e+00 9.596180000000000376e+00 3.423119999999999941e+00 5.224330000000000140e+00 1.464439999999999964e+00 8.270360000000000156e+00 6.666949999999999932e+00 9.922919999999999519e+00 5.462889999999999802e+00 6.667010000000000325e+00 1.262900000000000134e-01 9.241000000000000603e-02 7.738599999999999923e-01 7.719269999999999854e+00 6.156099999999999905e-01 5.224339999999999762e+00 4.274130000000000429e+00 6.156099999999999905e-01 5.224330000000000140e+00 8.290100000000000247e-01 6.156199999999999450e-01 5.224319999999999631e+00 7.016560000000000130e+00 9.239999999999999603e-02 7.738699999999999468e-01 3.571429999999999882e+00 9.239999999999999603e-02 7.738699999999999468e-01 1.181789999999999985e+01 4.695129999999999804e+00 8.109700000000000131e+00 3.050720000000000098e+00 1.887690000000000090e+00 8.109730000000000771e+00 4.927629999999999733e+00 4.695129999999999804e+00 8.109700000000000131e+00 6.495840000000000281e+00 1.887680000000000025e+00 8.109730000000000771e+00 8.372769999999999158e+00 4.695120000000000182e+00 8.109700000000000131e+00 9.940979999999999706e+00 1.887680000000000025e+00 8.109740000000000393e+00 3.359449999999999825e+00 7.502629999999999910e+00 8.109740000000000393e+00 6.804590000000000138e+00 7.502620000000000289e+00 8.109730000000000771e+00 1.024971999999999994e+01 7.502629999999999910e+00 8.109740000000000393e+00 1.858400000000000052e+00 3.178609999999999935e+00 1.111741999999999919e+01 1.252059999999999995e+01 5.218340000000000423e+00 1.256015999999999977e+01 3.408619999999999983e+00 3.946340000000000181e+00 9.674799999999999400e+00 1.095242000000000004e+01 8.025829999999999131e+00 1.256019000000000041e+01 3.735360000000000014e+00 5.986089999999999911e+00 1.111747000000000085e+01 3.753429999999999822e+00 2.410880000000000134e+00 1.256020999999999965e+01 5.303519999999999790e+00 3.178609999999999935e+00 1.111743000000000059e+01 5.630349999999999966e+00 5.218340000000000423e+00 1.256015000000000015e+01 6.853769999999999918e+00 3.946340000000000181e+00 9.674799999999999400e+00 8.730710000000000193e+00 6.753770000000000273e+00 9.674789999999999779e+00 7.180489999999999817e+00 5.986100000000000421e+00 1.111748000000000047e+01 7.198540000000000383e+00 2.410899999999999821e+00 1.256019000000000041e+01 8.748649999999999594e+00 3.178620000000000001e+00 1.111743000000000059e+01 9.075490000000000279e+00 5.218340000000000423e+00 1.256016999999999939e+01 1.029889999999999972e+01 3.946340000000000181e+00 9.674810000000000798e+00 9.057410000000000849e+00 8.793570000000000775e+00 1.111743000000000059e+01 1.062561000000000000e+01 5.986100000000000421e+00 1.111747000000000085e+01 1.064367000000000019e+01 2.410880000000000134e+00 1.256020000000000003e+01 2.167139999999999844e+00 8.793559999999999377e+00 1.111743000000000059e+01 1.840449999999999919e+00 6.753770000000000273e+00 9.674799999999999400e+00 4.062160000000000437e+00 8.025829999999999131e+00 1.256020000000000003e+01 5.612280000000000157e+00 8.793570000000000775e+00 1.111740999999999957e+01 5.285590000000000011e+00 6.753770000000000273e+00 9.674799999999999400e+00 7.507299999999999862e+00 8.025840000000000529e+00 1.256019000000000041e+01 1.531700000000000061e+00 1.138819999999999943e+00 9.674799999999999400e+00 8.421969999999999956e+00 1.138819999999999943e+00 9.674789999999999779e+00 4.976829999999999643e+00 1.138819999999999943e+00 9.674789999999999779e+00 1.142394999999999960e+01 9.786870000000000402e+00 3.659219999999999917e+00 2.311960000000000015e+00 8.514860000000000539e+00 7.738699999999999468e-01 2.638679999999999914e+00 1.055461999999999989e+01 2.216530000000000111e+00 4.533689999999999998e+00 9.786870000000000402e+00 3.659229999999999983e+00 5.757089999999999819e+00 8.514870000000000161e+00 7.738599999999999923e-01 6.083809999999999718e+00 1.055462999999999951e+01 2.216549999999999798e+00 7.978810000000000180e+00 9.786880000000000024e+00 3.659229999999999983e+00 9.202230000000000132e+00 8.514860000000000539e+00 7.738699999999999468e-01 9.528950000000000031e+00 1.055461999999999989e+01 2.216540000000000177e+00 1.070470000000000033e+00 1.336209999999999987e+01 2.216489999999999849e+00 1.173269999999999946e+01 1.540182000000000073e+01 3.659229999999999983e+00 2.620699999999999807e+00 1.412981000000000087e+01 7.738699999999999468e-01 7.437899999999999512e-01 1.132230000000000025e+01 7.738699999999999468e-01 2.947420000000000151e+00 1.616957000000000022e+01 2.216549999999999798e+00 2.965489999999999959e+00 1.259436999999999962e+01 3.659269999999999801e+00 4.515609999999999680e+00 1.336209000000000024e+01 2.216489999999999849e+00 4.842419999999999725e+00 1.540183000000000035e+01 3.659240000000000048e+00 6.065830000000000055e+00 1.412981000000000087e+01 7.738800000000000123e-01 4.188900000000000290e+00 1.132229000000000063e+01 7.738699999999999468e-01 6.392559999999999576e+00 1.616957000000000022e+01 2.216549999999999798e+00 6.410630000000000273e+00 1.259436999999999962e+01 3.659260000000000179e+00 7.960740000000000371e+00 1.336209000000000024e+01 2.216489999999999849e+00 8.287549999999999528e+00 1.540182000000000073e+01 3.659219999999999917e+00 9.510970000000000368e+00 1.412982000000000049e+01 7.738800000000000123e-01 7.634039999999999715e+00 1.132230000000000025e+01 7.738500000000000378e-01 9.837690000000000268e+00 1.616957000000000022e+01 2.216549999999999798e+00 9.855750000000000455e+00 1.259436999999999962e+01 3.659269999999999801e+00 3.014670000000000183e+00 9.038080000000000780e+00 5.224330000000000140e+00 3.341390000000000082e+00 1.107784000000000013e+01 6.667010000000000325e+00 6.459810000000000052e+00 9.038080000000000780e+00 5.224330000000000140e+00 6.786520000000000330e+00 1.107783000000000051e+01 6.667019999999999946e+00 9.904930000000000234e+00 9.038069999999999382e+00 5.224339999999999762e+00 1.023165000000000013e+01 1.107783000000000051e+01 6.667010000000000325e+00 1.773179999999999978e+00 1.388528999999999947e+01 6.666960000000000441e+00 3.323399999999999910e+00 1.465301999999999971e+01 5.224339999999999762e+00 1.446499999999999897e+00 1.184551000000000087e+01 5.224319999999999631e+00 3.650129999999999875e+00 1.669277999999999906e+01 6.667010000000000325e+00 5.218309999999999782e+00 1.388531000000000049e+01 6.666949999999999932e+00 6.768539999999999779e+00 1.465301999999999971e+01 5.224330000000000140e+00 4.891630000000000145e+00 1.184551000000000087e+01 5.224319999999999631e+00 7.095259999999999678e+00 1.669277999999999906e+01 6.667010000000000325e+00 8.663439999999999586e+00 1.388528999999999947e+01 6.666960000000000441e+00 1.021367000000000047e+01 1.465301999999999971e+01 5.224339999999999762e+00 8.336740000000000705e+00 1.184549999999999947e+01 5.224330000000000140e+00 1.054039000000000037e+01 1.669278999999999868e+01 6.666999999999999815e+00 1.212664999999999971e+01 1.031007999999999925e+01 8.109690000000000509e+00 5.236390000000000100e+00 1.031007999999999925e+01 8.109690000000000509e+00 8.681520000000000792e+00 1.031006999999999962e+01 8.109700000000000131e+00 1.243539999999999957e+01 1.592501999999999995e+01 8.109690000000000509e+00 3.668200000000000127e+00 1.311757000000000062e+01 8.109730000000000771e+00 5.545119999999999827e+00 1.592503999999999920e+01 8.109700000000000131e+00 7.113339999999999996e+00 1.311757000000000062e+01 8.109719999999999374e+00 8.990259999999999252e+00 1.592501999999999995e+01 8.109700000000000131e+00 1.055846000000000018e+01 1.311758000000000024e+01 8.109740000000000393e+00 1.282934999999999981e+01 1.083328000000000024e+01 1.256015999999999977e+01 3.717360000000000220e+00 9.561280000000000001e+00 9.674810000000000798e+00 4.044100000000000250e+00 1.160105000000000075e+01 1.111748000000000047e+01 5.939099999999999824e+00 1.083328999999999986e+01 1.256016999999999939e+01 7.162499999999999645e+00 9.561289999999999623e+00 9.674799999999999400e+00 7.489220000000000432e+00 1.160105000000000075e+01 1.111747000000000085e+01 9.384219999999999118e+00 1.083328999999999986e+01 1.256015000000000015e+01 1.060763000000000034e+01 9.561289999999999623e+00 9.674799999999999400e+00 1.093435000000000024e+01 1.160103999999999935e+01 1.111747000000000085e+01 2.475870000000000015e+00 1.440851999999999933e+01 1.111740999999999957e+01 1.313809000000000005e+01 1.644823999999999842e+01 1.256016999999999939e+01 4.026119999999999699e+00 1.517623999999999995e+01 9.674799999999999400e+00 2.149199999999999999e+00 1.236872999999999934e+01 9.674789999999999779e+00 4.352829999999999977e+00 1.721600000000000108e+01 1.111747000000000085e+01 4.370899999999999785e+00 1.364077999999999946e+01 1.256019000000000041e+01 5.921000000000000263e+00 1.440851999999999933e+01 1.111740999999999957e+01 6.247840000000000060e+00 1.644823999999999842e+01 1.256015000000000015e+01 7.471239999999999881e+00 1.517623999999999995e+01 9.674799999999999400e+00 5.594319999999999737e+00 1.236871999999999971e+01 9.674789999999999779e+00 7.797970000000000290e+00 1.721599000000000146e+01 1.111747000000000085e+01 7.816040000000000099e+00 1.364079000000000086e+01 1.256020000000000003e+01 9.366139999999999688e+00 1.440850999999999971e+01 1.111740999999999957e+01 9.692959999999999354e+00 1.644822999999999880e+01 1.256015000000000015e+01 1.091638000000000019e+01 1.517623999999999995e+01 9.674799999999999400e+00 9.039460000000000051e+00 1.236872999999999934e+01 9.674789999999999779e+00 1.124310000000000009e+01 1.721599000000000146e+01 1.111748000000000047e+01 1.126116999999999990e+01 1.364079000000000086e+01 1.256019000000000041e+01