-2.429028072730000076e+03
-2.429155070950000209e+03
-2.429327239470000222e+03
-2.429544606939999994e+03
-2.429807390169999962e+03
-2.430115898399999878e+03
-2.430470461769999929e+03
-2.430871510320000198e+03
-2.431319377440000153e+03
-2.431814233290000175e+03
