-3.140760000000000218e-01 -1.201689999999999980e-01 2.720701000000000036e+00 3.139029999999999876e-01 1.193489999999999968e-01 -2.719615999999999811e+00 3.141570000000000196e-01 1.198240000000000000e-01 -2.719752999999999865e+00 -3.149620000000000197e-01 -1.192180000000000045e-01 2.720464000000000215e+00 3.139859999999999873e-01 1.193810000000000010e-01 -2.719415999999999833e+00 3.141109999999999736e-01 1.193990000000000051e-01 -2.720038999999999874e+00 -3.145089999999999830e-01 -1.197209999999999941e-01 2.720793000000000017e+00 3.130600000000000049e-01 1.198459999999999942e-01 -2.719276999999999944e+00 3.140899999999999803e-01 1.194840000000000069e-01 -2.720070999999999906e+00 -3.137980000000000214e-01 -1.189469999999999972e-01 2.720124000000000208e+00 -3.136869999999999936e-01 -1.196490000000000054e-01 2.720741999999999994e+00 3.141109999999999736e-01 1.193020000000000053e-01 -2.719071000000000016e+00 -3.138929999999999776e-01 -1.191699999999999982e-01 2.719631000000000132e+00 -3.140290000000000026e-01 -1.200279999999999958e-01 2.720644000000000062e+00 3.139970000000000261e-01 1.194149999999999934e-01 -2.719486999999999988e+00 -3.140919999999999823e-01 -1.193599999999999939e-01 2.719888999999999779e+00 -3.139790000000000081e-01 -1.193570000000000048e-01 2.720851999999999826e+00 3.136300000000000199e-01 1.196509999999999935e-01 -2.719371000000000205e+00 3.137659999999999894e-01 1.190569999999999962e-01 -2.719130999999999965e+00 3.141280000000000183e-01 1.196500000000000064e-01 -2.719907000000000075e+00 3.135930000000000106e-01 1.194569999999999937e-01 -2.719504000000000143e+00 3.138270000000000226e-01 1.196320000000000022e-01 -2.719729000000000063e+00 3.137800000000000034e-01 1.193909999999999971e-01 -2.719263000000000208e+00 3.143219999999999903e-01 1.199719999999999953e-01 -2.719895999999999869e+00 3.142099999999999893e-01 1.194199999999999984e-01 -2.719815000000000094e+00 3.138520000000000199e-01 1.199920000000000014e-01 -2.719451999999999980e+00 3.137829999999999786e-01 1.190360000000000029e-01 -2.719449000000000005e+00 -3.146240000000000148e-01 -1.192819999999999991e-01 2.720394999999999897e+00 -3.144379999999999953e-01 -1.194599999999999967e-01 2.720353999999999939e+00 -3.143239999999999923e-01 -1.192759999999999931e-01 2.720425000000000093e+00 -3.140760000000000218e-01 -1.197580000000000033e-01 2.719625000000000181e+00 -3.136599999999999944e-01 -1.193199999999999955e-01 2.720448000000000199e+00 -3.138389999999999791e-01 -1.196949999999999958e-01 2.719948000000000032e+00 -3.140080000000000093e-01 -1.195390000000000064e-01 2.720565999999999818e+00 -3.138099999999999778e-01 -1.197519999999999973e-01 2.719688999999999801e+00 -3.142360000000000153e-01 -1.188840000000000036e-01 2.720464999999999911e+00 -3.144520000000000093e-01 -1.199810000000000043e-01 2.720708999999999822e+00 3.136599999999999944e-01 1.192669999999999980e-01 -2.719638000000000222e+00 3.146700000000000053e-01 1.192170000000000035e-01 -2.720045999999999964e+00 -3.147510000000000030e-01 -1.196839999999999987e-01 2.720644000000000062e+00 3.138589999999999991e-01 1.190959999999999935e-01 -2.719167000000000112e+00 3.141840000000000188e-01 1.195330000000000004e-01 -2.719812999999999814e+00 -3.144750000000000045e-01 -1.200169999999999987e-01 2.720479999999999787e+00 3.136180000000000079e-01 1.192919999999999953e-01 -2.719444000000000194e+00 3.141200000000000103e-01 1.199090000000000017e-01 -2.719825000000000159e+00 -3.136820000000000164e-01 -1.193059999999999954e-01 2.719657000000000213e+00 -3.138639999999999763e-01 -1.193030000000000063e-01 2.720566999999999958e+00 3.140749999999999931e-01 1.195159999999999972e-01 -2.719287000000000010e+00 -3.137829999999999786e-01 -1.188710000000000044e-01 2.719888000000000083e+00 -3.138139999999999818e-01 -1.193759999999999960e-01 2.720508999999999844e+00 3.141129999999999756e-01 1.199550000000000061e-01 -2.719133999999999940e+00 -3.147889999999999855e-01 -1.188909999999999967e-01 2.719854000000000216e+00 -3.142559999999999798e-01 -1.192509999999999959e-01 2.720273000000000163e+00 3.135459999999999914e-01 1.199569999999999942e-01 -2.719313999999999787e+00 -3.139710000000000001e-01 -1.196229999999999932e-01 2.720327000000000162e+00 -3.148509999999999920e-01 -1.187860000000000027e-01 2.720277999999999974e+00 -3.142940000000000178e-01 -1.191920000000000063e-01 2.720346999999999849e+00 3.136329999999999951e-01 1.201409999999999978e-01 -2.719589000000000034e+00 3.138340000000000019e-01 1.201350000000000057e-01 -2.719434000000000129e+00 3.131610000000000227e-01 1.204400000000000054e-01 -2.719838999999999896e+00 -3.144460000000000033e-01 -1.192949999999999983e-01 2.720822000000000074e+00 -3.141369999999999996e-01 -1.191809999999999953e-01 2.719431999999999849e+00 3.133380000000000054e-01 1.206330000000000041e-01 -2.718909000000000020e+00 3.141220000000000123e-01 1.193420000000000036e-01 -2.719742000000000104e+00 -3.150490000000000235e-01 -1.190660000000000052e-01 2.720610000000000195e+00 -3.138900000000000023e-01 -1.191669999999999952e-01 2.719367000000000090e+00 3.132269999999999777e-01 1.202450000000000047e-01 -2.719184999999999963e+00 3.139250000000000096e-01 1.195930000000000049e-01 -2.719929000000000041e+00 -3.145430000000000170e-01 -1.192349999999999938e-01 2.720613999999999866e+00 -3.136990000000000056e-01 -1.190230000000000038e-01 2.719376000000000015e+00 3.131189999999999807e-01 1.202330000000000065e-01 -2.719155000000000211e+00 3.137900000000000134e-01 1.198390000000000011e-01 -2.719847999999999821e+00 3.135120000000000129e-01 1.202960000000000002e-01 -2.719643000000000033e+00 3.138659999999999783e-01 1.205159999999999981e-01 -2.719764000000000070e+00 3.134709999999999996e-01 1.201610000000000039e-01 -2.719237999999999822e+00 3.131579999999999919e-01 1.204220000000000013e-01 -2.719160000000000021e+00 3.138360000000000039e-01 1.186930000000000068e-01 -2.719828999999999830e+00 3.133050000000000002e-01 1.207769999999999955e-01 -2.718993000000000215e+00 3.137349999999999861e-01 1.187959999999999988e-01 -2.720165999999999862e+00 3.134419999999999984e-01 1.199540000000000051e-01 -2.719024000000000107e+00 3.140510000000000246e-01 1.188670000000000004e-01 -2.720184999999999853e+00 -3.143039999999999723e-01 -1.194800000000000029e-01 2.720744999999999969e+00 -3.144469999999999765e-01 -1.187499999999999944e-01 2.720581999999999834e+00 -3.144859999999999878e-01 -1.196300000000000002e-01 2.720918000000000170e+00 -3.145990000000000175e-01 -1.199209999999999998e-01 2.720635000000000137e+00 -3.138770000000000171e-01 -1.191249999999999948e-01 2.720077999999999996e+00 -3.146149999999999780e-01 -1.200719999999999982e-01 2.720438000000000134e+00 -3.137039999999999829e-01 -1.187420000000000003e-01 2.719622000000000206e+00 -3.143619999999999748e-01 -1.204690000000000066e-01 2.720657999999999799e+00 -3.134270000000000111e-01 -1.193379999999999996e-01 2.719767000000000046e+00 -3.144100000000000228e-01 -1.195370000000000044e-01 2.720779999999999976e+00 -3.137980000000000214e-01 -1.195770000000000027e-01 2.720469000000000026e+00 -3.145379999999999843e-01 -1.198179999999999940e-01 2.720911000000000080e+00 3.133630000000000027e-01 1.205009999999999970e-01 -2.719571999999999878e+00 3.136430000000000051e-01 1.201440000000000008e-01 -2.719723000000000113e+00 3.135290000000000021e-01 1.200009999999999966e-01 -2.719174000000000202e+00 -3.145089999999999830e-01 -1.194189999999999974e-01 2.720423999999999953e+00 -3.140850000000000031e-01 -1.183400000000000007e-01 2.719736999999999849e+00 3.135839999999999739e-01 1.200149999999999967e-01 -2.718850999999999907e+00 3.133000000000000229e-01 1.198550000000000032e-01 -2.719892000000000198e+00 -3.144680000000000253e-01 -1.194370000000000015e-01 2.721077999999999886e+00 -3.136959999999999749e-01 -1.184700000000000059e-01 2.720232000000000205e+00 3.129680000000000240e-01 1.211139999999999994e-01 -2.719031000000000198e+00 3.140629999999999811e-01 1.190200000000000008e-01 -2.719545999999999797e+00 -3.145040000000000058e-01 -1.195480000000000015e-01 2.720655999999999963e+00 -3.138270000000000226e-01 -1.186780000000000057e-01 2.719850000000000101e+00 3.133340000000000014e-01 1.207570000000000032e-01 -2.718627000000000127e+00 3.142030000000000101e-01 1.193580000000000058e-01 -2.719873999999999903e+00 7.280000000000000230e-04 -5.429999999999999714e-04 1.067000000000000023e-03 -2.005491000000000135e+00 -1.784694000000000003e+00 2.601446000000000147e+00 2.004401000000000099e+00 1.786373999999999906e+00 -2.602808000000000010e+00 2.004964000000000190e+00 1.785290999999999961e+00 -2.602292999999999967e+00 1.752000000000000085e-03 7.129999999999999836e-04 -6.279999999999999775e-04 -2.005066999999999933e+00 -1.784183000000000074e+00 2.601328000000000085e+00 3.190000000000000019e-04 -3.890000000000000228e-04 1.247999999999999977e-03 -2.004868000000000094e+00 -1.784820999999999991e+00 2.600915000000000088e+00 2.004802000000000195e+00 1.786699999999999955e+00 -2.602891000000000066e+00 4.970000000000000459e-04 -1.660999999999999933e-03 -4.899999999999999842e-04 1.758999999999999930e-03 2.110000000000000059e-04 -1.002999999999999985e-03 -2.004789999999999850e+00 -1.784591000000000038e+00 2.601307999999999954e+00 9.129999999999999661e-04 -4.949999999999999973e-04 7.159999999999999481e-04 -2.004687999999999803e+00 -1.784798000000000107e+00 2.600915000000000088e+00 2.004611000000000143e+00 1.785997000000000057e+00 -2.603012999999999799e+00 2.003709000000000184e+00 1.785369999999999902e+00 -2.602824000000000026e+00 1.645999999999999894e-03 2.790000000000000054e-04 -4.459999999999999989e-04 -2.005230000000000068e+00 -1.784278999999999948e+00 2.601523999999999948e+00 4.360000000000000269e-04 -1.992999999999999980e-03 1.949999999999999965e-04 2.003976999999999897e+00 1.785927000000000042e+00 -2.601789000000000129e+00 -2.005018999999999885e+00 -1.784215000000000106e+00 2.600162000000000084e+00 2.059999999999999928e-04 -2.037000000000000182e-03 2.640000000000000202e-04 2.004401999999999795e+00 1.785700000000000065e+00 -2.601500000000000146e+00 -2.004796999999999940e+00 -1.784086000000000061e+00 2.600000999999999785e+00 5.990000000000000316e-04 -2.040000000000000147e-03 -2.049999999999999956e-04 2.004115999999999786e+00 1.785752000000000006e+00 -2.601674000000000042e+00 -2.004532000000000203e+00 -1.784675999999999929e+00 2.600312999999999874e+00 7.299999999999999903e-05 -9.579999999999999757e-04 -1.930000000000000021e-04 2.003813000000000066e+00 1.785414000000000057e+00 -2.602860000000000174e+00 3.089999999999999756e-04 -1.363999999999999978e-03 -3.200000000000000262e-04 1.121999999999999950e-03 -8.369999999999999619e-04 -9.859999999999998974e-04 7.439999999999999782e-04 -2.031999999999999952e-03 -2.500000000000000120e-05 2.004780999999999924e+00 1.785239999999999938e+00 -2.602972999999999981e+00 2.003921000000000063e+00 1.785427000000000097e+00 -2.602326999999999835e+00 1.768000000000000040e-03 -9.280000000000000054e-04 -6.009999999999999717e-04 1.139999999999999954e-03 -1.046000000000000055e-03 -2.259999999999999910e-04 2.004722000000000115e+00 1.785366999999999926e+00 -2.602552000000000199e+00 3.629999999999999872e-04 -1.593999999999999931e-03 -5.869999999999999567e-04 1.397000000000000021e-03 -1.008999999999999914e-03 -5.900000000000000296e-04 2.003849999999999909e+00 1.785843000000000069e+00 -2.601337000000000010e+00 2.004269999999999996e+00 1.785517999999999939e+00 -2.602475000000000094e+00 2.003932999999999964e+00 1.785438000000000081e+00 -2.601904000000000217e+00 2.003617999999999899e+00 1.785279000000000060e+00 -2.601895999999999987e+00 2.004258000000000095e+00 1.786070000000000046e+00 -2.602498000000000200e+00 2.004401000000000099e+00 1.786021000000000081e+00 -2.602183000000000135e+00 -2.005694000000000088e+00 -1.785080999999999918e+00 2.601239000000000079e+00 -2.005850999999999829e+00 -1.785241999999999996e+00 2.600414999999999921e+00 -2.005034999999999901e+00 -1.784734999999999960e+00 2.601086000000000009e+00 -2.005126999999999882e+00 -1.784931000000000045e+00 2.600131000000000192e+00 -2.004145999999999983e+00 -1.784880999999999940e+00 2.600849000000000188e+00 -2.005081999999999809e+00 -1.784669999999999979e+00 2.599779999999999980e+00 -2.004849999999999799e+00 -1.784575999999999940e+00 2.601358999999999977e+00 -2.005122000000000071e+00 -1.784594999999999931e+00 2.601649999999999796e+00 -2.005119999999999791e+00 -1.785071999999999992e+00 2.601210000000000022e+00 -7.100000000000000462e-05 1.800000000000000046e-05 9.370000000000000074e-04 -2.004971999999999976e+00 -1.784273999999999916e+00 2.602047000000000221e+00 2.004045000000000076e+00 1.786148999999999987e+00 -2.602719000000000005e+00 -2.004884999999999806e+00 -1.784413000000000027e+00 2.602092999999999989e+00 1.098000000000000018e-03 1.720000000000000066e-04 5.689999999999999529e-04 -2.005415000000000170e+00 -1.783571999999999935e+00 2.601032000000000011e+00 8.159999999999999936e-04 -3.000000000000000076e-06 4.229999999999999819e-04 -2.004771999999999998e+00 -1.784154999999999935e+00 2.602221999999999813e+00 2.004614000000000118e+00 1.785948000000000091e+00 -2.602298999999999918e+00 2.004427000000000181e+00 1.785228999999999955e+00 -2.600875999999999966e+00 2.135000000000000179e-03 2.149999999999999947e-04 3.629999999999999872e-04 -2.004779000000000089e+00 -1.784118000000000093e+00 2.601415999999999951e+00 1.409000000000000096e-03 1.569999999999999944e-04 1.740000000000000010e-04 -2.005012999999999934e+00 -1.784264000000000072e+00 2.601872000000000185e+00 2.004370000000000207e+00 1.785843999999999987e+00 -2.602908999999999917e+00 5.349999999999999938e-04 -1.610000000000000103e-03 1.069999999999999988e-03 1.954000000000000008e-03 -2.829999999999999942e-04 1.869999999999999917e-04 -2.005120999999999931e+00 -1.783722999999999947e+00 2.601096000000000075e+00 1.540000000000000028e-04 -1.526999999999999929e-03 1.330000000000000019e-03 2.004307999999999979e+00 1.785058000000000034e+00 -2.601116999999999901e+00 -2.004668000000000117e+00 -1.784210999999999991e+00 2.601650999999999936e+00 2.159999999999999919e-04 -2.145000000000000205e-03 1.631000000000000071e-03 2.004291999999999963e+00 1.785686000000000107e+00 -2.601128000000000107e+00 -2.004729999999999901e+00 -1.784697999999999896e+00 2.601678999999999853e+00 2.003964999999999996e+00 1.785557000000000061e+00 -2.603587999999999791e+00 2.004443999999999892e+00 1.785776000000000030e+00 -2.603022000000000169e+00 2.004072999999999993e+00 1.785746000000000056e+00 -2.602943999999999924e+00 -2.005274000000000001e+00 -1.784494000000000025e+00 2.601519000000000137e+00 2.004180999999999990e+00 1.785431999999999908e+00 -2.603156999999999943e+00 9.169999999999999549e-04 -6.920000000000000153e-04 2.290000000000000098e-04 -2.005663999999999891e+00 -1.784593000000000096e+00 2.601318000000000019e+00 2.004516999999999882e+00 1.784921999999999898e+00 -2.602767000000000053e+00 1.549999999999999946e-03 -9.129999999999999661e-04 -5.159999999999999656e-04 -2.004567000000000210e+00 -1.784707999999999961e+00 2.601118000000000041e+00 2.004614999999999814e+00 1.784913999999999890e+00 -2.603146999999999878e+00 1.209000000000000005e-03 -1.023000000000000038e-03 8.399999999999999535e-05 1.139000000000000038e-03 -1.242999999999999964e-03 1.043000000000000090e-03 -2.005424999999999791e+00 -1.784799000000000024e+00 2.602806999999999871e+00 2.004715000000000025e+00 1.784798000000000107e+00 -2.601909000000000027e+00 2.004363999999999812e+00 1.784999000000000002e+00 -2.602612000000000148e+00 5.169999999999999899e-04 -8.530000000000000256e-04 4.400000000000000157e-04 -2.005196000000000200e+00 -1.784936999999999996e+00 2.601002999999999954e+00 1.100999999999999982e-03 -1.466999999999999988e-03 6.880000000000000265e-04 -2.005171999999999954e+00 -1.785098999999999991e+00 2.602189000000000085e+00 2.005161999999999889e+00 1.784969000000000028e+00 -2.602053000000000171e+00 2.004081999999999919e+00 1.785352000000000050e+00 -2.602241999999999944e+00 1.116999999999999937e-03 -7.799999999999999859e-04 -4.899999999999999842e-05 -2.004935999999999829e+00 -1.784661999999999971e+00 2.601281999999999872e+00 1.438000000000000042e-03 -1.113999999999999973e-03 5.019999999999999506e-04 -2.004977999999999927e+00 -1.784958000000000045e+00 2.602565999999999935e+00 2.004497000000000195e+00 1.784675999999999929e+00 -2.601653999999999911e+00 2.004160000000000164e+00 1.784823999999999966e+00 -2.601818999999999882e+00 1.028000000000000051e-03 -8.199999999999999824e-04 2.919999999999999961e-04 -2.004811000000000121e+00 -1.784734000000000043e+00 2.601751999999999843e+00 2.003973999999999922e+00 1.785492999999999997e+00 -2.604299999999999837e+00 1.248999999999999893e-03 2.660000000000000146e-04 -6.419999999999999925e-04 2.004090000000000149e+00 1.785477999999999899e+00 -2.604185999999999890e+00 1.229999999999999974e-03 2.799999999999999755e-04 -9.730000000000000151e-04 2.004650999999999961e+00 1.785922000000000009e+00 -2.604500999999999955e+00 1.366999999999999943e-03 2.329999999999999986e-04 -8.400000000000000348e-04 1.172000000000000082e-03 1.169999999999999979e-04 -2.159999999999999919e-04 2.004195999999999867e+00 1.785676000000000041e+00 -2.602215000000000167e+00 2.003588999999999842e+00 1.786065000000000014e+00 -2.602526999999999813e+00 4.899999999999999842e-04 -6.669999999999999497e-04 -8.339999999999999974e-04 1.340000000000000045e-03 -3.179999999999999776e-04 -4.500000000000000283e-05 2.004970000000000141e+00 1.785417000000000032e+00 -2.602247000000000199e+00 2.003975000000000062e+00 1.785460999999999965e+00 -2.602168999999999954e+00 1.379999999999999933e-03 -8.419999999999999750e-04 -1.038999999999999993e-03 1.425000000000000051e-03 4.889999999999999599e-04 -8.580000000000000387e-04 2.004661000000000026e+00 1.785686000000000107e+00 -2.602198000000000011e+00 2.004213000000000022e+00 1.786119999999999930e+00 -2.602612000000000148e+00 1.317000000000000028e-03 -7.410000000000000137e-04 -9.859999999999998974e-04 -2.005294999999999828e+00 -1.783906999999999909e+00 2.601462999999999859e+00 -2.005583000000000116e+00 -1.784162000000000026e+00 2.601719999999999811e+00 -2.005001000000000033e+00 -1.783910000000000107e+00 2.601358999999999977e+00 -2.005187999999999970e+00 -1.784545999999999966e+00 2.600861000000000089e+00 -2.005320999999999909e+00 -1.783965999999999941e+00 2.600655000000000161e+00 -2.005383000000000138e+00 -1.784939000000000053e+00 2.600785999999999820e+00 -2.005320000000000213e+00 -1.784003999999999923e+00 2.600785000000000124e+00 -2.005069000000000212e+00 -1.783989000000000047e+00 2.600576000000000221e+00 -2.004405000000000214e+00 -1.784002000000000088e+00 2.600591000000000097e+00 -2.004799999999999915e+00 -1.784594999999999931e+00 2.602405000000000079e+00 2.004668000000000117e+00 1.785927999999999960e+00 -2.602689999999999948e+00 9.920000000000000432e-04 -1.062000000000000010e-03 6.629999999999999609e-04 -2.005459000000000103e+00 -1.784494000000000025e+00 2.602146999999999988e+00 2.004453999999999958e+00 1.785096999999999934e+00 -2.602564999999999795e+00 1.490000000000000005e-03 -8.930000000000000221e-04 4.510000000000000120e-04 -2.005107999999999890e+00 -1.785101000000000049e+00 2.602335000000000065e+00 2.004518000000000022e+00 1.785438999999999998e+00 -2.602160000000000029e+00 1.564000000000000069e-03 -6.210000000000000242e-04 3.029999999999999924e-04 1.737000000000000046e-03 -1.482000000000000027e-03 -5.019999999999999506e-04 -2.004922000000000093e+00 -1.784785000000000066e+00 2.601411000000000140e+00 2.003807999999999812e+00 1.784999000000000002e+00 -2.602984999999999882e+00 2.003975000000000062e+00 1.785622999999999960e+00 -2.602028999999999925e+00 6.269999999999999532e-04 -1.325000000000000006e-03 -8.840000000000000201e-04 -2.005288999999999877e+00 -1.785260000000000069e+00 2.602050999999999892e+00 9.920000000000000432e-04 -1.830999999999999945e-03 2.030000000000000012e-04 -2.005044999999999966e+00 -1.784748999999999919e+00 2.602374999999999883e+00 2.004696000000000033e+00 1.785214000000000079e+00 -2.603429000000000215e+00 2.004077000000000108e+00 1.785492000000000079e+00 -2.602596000000000132e+00 1.291999999999999963e-03 -3.110000000000000243e-04 -4.180000000000000230e-04 -2.005298999999999943e+00 -1.785330000000000084e+00 2.602193000000000200e+00 2.010000000000000068e-03 -1.231000000000000106e-03 -7.200000000000000182e-05 -2.004646999999999846e+00 -1.784388000000000085e+00 2.602132999999999807e+00 2.005069000000000212e+00 1.784980999999999929e+00 -2.603098999999999830e+00 2.004173000000000204e+00 1.785330000000000084e+00 -2.602056000000000147e+00 8.040000000000000271e-04 -9.979999999999999722e-04 -6.369999999999999794e-04 -2.004783999999999899e+00 -1.785144000000000064e+00 2.601579999999999782e+00