1.098696657764045622e-05 1.723840000015596230e-01 7.289998277489591425e-04 -1.000620093553455923e-06 2.099988799921483009e-05 -1.120510000000154577e-01 -2.100002099489354970e-05 3.499999994026494312e-04 9.919999997663102396e-04 1.800001100733310020e-05 -2.239999997124473815e-04 -1.074999999875609052e-03 1.584000196499103568e-03 -2.610999880377466806e-03 -1.760000061353845949e-04 -1.788999786440578776e-03 -2.756000134375565565e-03 9.280000126279250782e-04 3.660000082266431681e-04 -4.899997150124538626e-05 8.189999980286777640e-04 -1.720000081253914524e-04 8.699998671190990339e-05 -2.799999991374870606e-04 -8.000002140583426500e-05 2.479999934701177444e-04 -4.799999998061329543e-04 2.129999669412558088e-04 3.750000152591996191e-04 -8.510000015503078191e-04 8.099997764573879362e-05 2.620000056665667968e-04 -4.600000007088139351e-04 -2.150000332083557377e-04 3.779999829034335680e-04 -8.369999991908063210e-04 1.896000218785065701e-03 -2.823999855663082703e-03 9.429999923551812390e-04 -3.999999948962746884e-04 -8.000029438018364431e-06 8.150000022159331354e-04 1.919999921086658801e-04 8.500001425630684807e-05 -2.650000011447167445e-04 -1.697999793907460555e-03 -2.735000128557015745e-03 -1.369999878953582172e-04 2.510003375264534091e-03 -4.159699976867858168e-02 4.153600002769542582e-02 -2.131997555849790300e-03 -2.956900012363291100e-02 3.765300004130411188e-02 -2.499999771899300699e-03 -1.656000170462567159e-03 1.863400001545377840e-02 2.127000251254420032e-03 -1.807999818411736622e-03 2.074599999006523574e-02 8.460002714958157017e-04 -2.085999915435936530e-03 2.060399999741385768e-02 -1.239996386777618984e-04 -3.243999988390740361e-03 2.101100000392481723e-02 -3.099983213518286198e-05 -6.629999810414884424e-04 2.132700000083337030e-02 -6.829999211903861221e-04 4.839999692300496112e-04 2.090900000328660413e-02 1.369999948250857176e-03 2.070000122579121991e-03 1.898699999037012365e-02 -6.389998871568526584e-04 4.399997269462835103e-05 2.104600000348323674e-02 -1.367999830235607428e-03 -8.200000839641130969e-04 1.952000000837024116e-02 6.380004422605347301e-04 -4.328999930963253577e-03 2.080800000080246931e-02 4.076900007233594248e-02 9.370031092838343153e-04 2.594299977402506410e-02 -2.361600085622837103e-02 1.407699825163138789e-02 3.775800011629572295e-02 -1.770999894699031322e-03 1.599998873039259150e-04 2.126900000961584256e-02 -1.537899896543339431e-02 -1.299000115368430068e-02 9.444000097865262039e-03 -4.131300020976402809e-02 1.772996861793557730e-03 -1.370899977372921907e-02 2.459599887659327452e-02 1.469300185799925045e-02 -2.205000150442857319e-03 1.777999882204385658e-03 1.630001153850567928e-04 -1.910700000997711881e-02 1.494000079530418378e-02 -1.274799890063556262e-02 -3.058600006973296107e-02 -6.079997794658743501e-04 -4.342000065500240154e-03 -1.953899999230680751e-02 -1.344000274117004195e-03 2.062999876982955696e-03 -2.139399999464199759e-02 6.049998920154788960e-04 1.700002644801546268e-05 -1.933000000335649213e-02 1.341999946541926622e-03 -8.129999193048043863e-04 -2.082400000659555966e-02 1.399994125061354569e-05 -6.140000179757727425e-04 -1.905599999946396700e-02 6.879998549826863308e-04 4.960000325794894751e-04 -1.947600000429310432e-02 -8.529999491010813737e-04 -2.117000084275383071e-03 -1.978499999317694102e-02 1.570001365027282774e-04 -3.218000007466294450e-03 -1.936199999765223292e-02 2.133002313617645904e-03 -3.076099984100495732e-02 -2.326999981047412312e-03 2.488000004760662111e-03 -1.649999833552492304e-03 -2.174500001208525338e-02 -2.142999970157842982e-03 -1.828000181693579000e-03 -1.963999998634500394e-02 -2.476996728334075314e-03 -4.309900018515047670e-02 2.188000056723259177e-03
1.098697369240452925e-05 1.722900000015606115e-01 7.299998278428534602e-04 -1.000619872759239552e-06 2.099988803916990276e-05 -1.120110000000154593e-01 -2.200002083811317615e-05 3.479999993280180550e-04 9.929999997738277965e-04 1.800001121214445389e-05 -2.269999997164428749e-04 -1.078999999872612631e-03 1.580000196353363064e-03 -2.608999880678988803e-03 -1.750000061153029237e-04 -1.787999786661949959e-03 -2.753000134298935926e-03 9.290000126194085861e-04 3.660000083077932613e-04 -4.999997150024650800e-05 8.199999980296766638e-04 -1.690000082766519483e-04 8.899998693880065604e-05 -2.799999991560444277e-04 -8.200002133020400214e-05 2.469999933188572055e-04 -4.799999997940943529e-04 2.149999667955151516e-04 3.770000154114589493e-04 -8.500000015633453259e-04 8.099997764573879362e-05 2.620000056665667968e-04 -4.600000007088139351e-04 -2.160000330570952204e-04 3.759999828278032621e-04 -8.369999991832886800e-04 1.895000218558175013e-03 -2.820999855738712779e-03 9.429999923577043943e-04 -3.989999946693838923e-04 -1.100002936238809877e-05 8.150000022134099801e-04 1.899999920275157654e-04 8.600001410404745528e-05 -2.660000011346759182e-04 -1.695999794274572012e-03 -2.730000128403757033e-03 -1.349999879113923261e-04 2.508003372555108693e-03 -4.156299976885481640e-02 4.151100002767250247e-02 -2.129997557764273797e-03 -2.954500012349963248e-02 3.763500004126910103e-02 -2.494999772240460295e-03 -1.652000170091408012e-03 1.862700001542218556e-02 2.124000251145670686e-03 -1.806999818644620731e-03 2.073999999008079714e-02 8.440002712192463041e-04 -2.082999915596186850e-03 2.059499999742190127e-02 -1.249996390669529079e-04 -3.238999988468368139e-03 2.100900000392534259e-02 -3.099983212027101635e-05 -6.639999810524760968e-04 2.131600000083437238e-02 -6.829999213156950650e-04 4.849999692210597022e-04 2.090000000328560634e-02 1.369999948509219301e-03 2.066000122571131324e-03 1.897899999037411939e-02 -6.409998869851604025e-04 4.099997253337907672e-05 2.103600000349727106e-02 -1.367999830436546736e-03 -8.180000839731030359e-04 1.951100000836824416e-02 6.400004419508461976e-04 -4.325999930826975037e-03 2.079300000078843080e-02 4.073900007247063804e-02 9.350031070119299223e-04 2.593999977419265968e-02 -2.360100085534453176e-02 1.406399825274786373e-02 3.774000011622591355e-02 -1.765999894802260800e-03 1.609998876770828212e-04 2.126400000958724584e-02 -1.536699896662691890e-02 -1.297400115277374220e-02 9.447000097783042616e-03 -4.128200020956860478e-02 1.770996864146086661e-03 -1.370099977389833620e-02 2.457799887763553737e-02 1.467900185663490939e-02 -2.208000150329515656e-03 1.771999882351773907e-03 1.620001149442606601e-04 -1.909400000994300114e-02 1.492600079464171878e-02 -1.273799890167740499e-02 -3.056900006966567496e-02 -6.069997799732067831e-04 -4.335000065420614550e-03 -1.953499999231931780e-02 -1.343000273812835479e-03 2.059999877072570245e-03 -2.137999999464451975e-02 6.049998919895273244e-04 1.800002645700535259e-05 -1.932100000335749274e-02 1.341999946196894460e-03 -8.079999192988111204e-04 -2.081800000660055314e-02 1.299994106788161798e-05 -6.110000180434120316e-04 -1.904799999946144365e-02 6.859998550803959915e-04 4.950000324322244381e-04 -1.947200000428106481e-02 -8.509999492893330830e-04 -2.114000084117130356e-03 -1.977799999319097835e-02 1.570001362498859340e-04 -3.214000007457304582e-03 -1.935299999765622767e-02 2.132002312018370805e-03 -3.073999984108258601e-02 -2.328999981062868964e-03 2.486000004502299503e-03 -1.645999833695761718e-03 -2.173700001207820934e-02 -2.137999970275984360e-03 -1.826000181309434412e-03 -1.963399998637459926e-02 -2.475996731235624408e-03 -4.306100018507984933e-02 2.183000056679782006e-03
1.098698775411259720e-05 1.721040000015596205e-01 7.289998280286444886e-04 -1.000619290950002601e-06 1.899988811708230955e-05 -1.119330000000134662e-01 -2.200002076800277510e-05 3.469999993270191552e-04 9.919999997748266476e-04 1.800001107192364841e-05 -2.249999997144451296e-04 -1.076999999874610333e-03 1.579000196266693110e-03 -2.607999880756617112e-03 -1.770000061107819577e-04 -1.788999786667469548e-03 -2.753000134375565167e-03 9.280000126249284519e-04 3.660000083133131514e-04 -4.999997149924762576e-05 8.209999980296766881e-04 -1.670000083578020470e-04 8.999998708906230586e-05 -2.809999991680829992e-04 -8.000002117342364376e-05 2.449999934711166011e-04 -4.789999998031363036e-04 2.119999669357359757e-04 3.750000151825704322e-04 -8.520000015447880617e-04 7.999997779147944796e-05 2.600000055899376154e-04 -4.610000007012963184e-04 -2.130000329814649715e-04 3.749999830546941180e-04 -8.369999991988494748e-04 1.894000218482544840e-03 -2.819999855814343120e-03 9.429999923622254089e-04 -3.989999947394942594e-04 -1.000002936138922441e-05 8.160000022124111289e-04 1.889999919518855109e-04 8.700001402841719522e-05 -2.660000011301549578e-04 -1.695999794361242050e-03 -2.729000128405755302e-03 -1.369999879123911960e-04 2.504003368104540210e-03 -4.150699976919629275e-02 4.147200002763865023e-02 -2.129997559739475917e-03 -2.952100012352859917e-02 3.760600004124512591e-02 -2.491999772365768948e-03 -1.651000169873507095e-03 1.861800001540462463e-02 2.122000250928172092e-03 -1.804999818807867702e-03 2.072799999008983693e-02 8.430002710017475177e-04 -2.080999915683803565e-03 2.058299999742542463e-02 -1.259996394357122359e-04 -3.234999988555985022e-03 2.099700000392686408e-02 -3.099983240788019301e-05 -6.609999810634639792e-04 2.130500000083137419e-02 -6.809999212952633349e-04 4.839999693623314920e-04 2.089000000327556270e-02 1.366999948546210580e-03 2.065000122337248833e-03 1.897199999039167820e-02 -6.399998871971393586e-04 4.299997259802168476e-05 2.102500000348975565e-02 -1.365999830550815959e-03 -8.170000838288346253e-04 1.950400000835620512e-02 6.400004417554268875e-04 -4.323999930834965776e-03 2.078500000078643481e-02 4.069700007178279899e-02 9.430031038204760713e-04 2.592499977441650033e-02 -2.358200085463955237e-02 1.405299825416186227e-02 3.771700011613202119e-02 -1.765999894781829227e-03 1.599998876670940423e-04 2.125400000958824198e-02 -1.534499896796618322e-02 -1.295600115110588126e-02 9.451000097643625156e-03 -4.123900021001134647e-02 1.776996867400185403e-03 -1.369899977414168295e-02 2.455799887854697230e-02 1.466600185510931985e-02 -2.221000150206133006e-03 1.770999882460523372e-03 1.610001148746236584e-04 -1.908800000993648299e-02 1.490600079339077233e-02 -1.271999890317003327e-02 -3.054900006957325664e-02 -6.069997800212376983e-04 -4.334000065415620148e-03 -1.952999999232031547e-02 -1.341000273569385205e-03 2.056999877226827096e-03 -2.137699999465256240e-02 6.059998918713859579e-04 2.000002653862886719e-05 -1.931500000336500850e-02 1.338999946095312341e-03 -8.059999195167119644e-04 -2.080900000658599328e-02 1.199994101985064291e-05 -6.100000181140478872e-04 -1.904299999945692490e-02 6.849998550544443955e-04 4.960000323655840843e-04 -1.946300000427654553e-02 -8.499999493798751074e-04 -2.112000084030512745e-03 -1.976699999319849604e-02 1.570001360616341489e-04 -3.211000007450312381e-03 -1.934599999765922521e-02 2.131002309888036135e-03 -3.071299984117419751e-02 -2.344999981084318775e-03 2.482000004465308163e-03 -1.644999833991290811e-03 -2.173000001205712892e-02 -2.136999970388605945e-03 -1.824000181226812086e-03 -1.962699998638211749e-02 -2.472996735916956155e-03 -4.300100018487892223e-02 2.157000056603289827e-03
8.987009994928206797e-06 1.718100000014093354e-01 7.299998283333537872e-04 -4.000618811299274549e-06 2.199988801804777139e-05 -1.118049999999998906e-01 -2.200002107052380417e-05 3.509999993270191982e-04 9.919999997708311458e-04 1.700001132089384788e-05 -2.279999997860798766e-04 -1.072999999866093611e-03 1.576000195991771350e-03 -2.603999880978513301e-03 -1.720000060982179117e-04 -1.786999787272511558e-03 -2.745000134224304892e-03 9.280000126058976680e-04 3.660000085937547285e-04 -5.399997150324312319e-05 8.169999980336722012e-04 -1.650000082010217022e-04 8.799998724132170145e-05 -2.799999991771249500e-04 -8.200002148146451667e-05 2.489999933188572000e-04 -4.799999997960921038e-04 2.159999671201156028e-04 3.730000154910847738e-04 -8.460000015648697254e-04 7.699997758114824644e-05 2.630000053660434887e-04 -4.580000006877334184e-04 -2.130000325922739592e-04 3.699999830566918558e-04 -8.349999991938550489e-04 1.891000218261173994e-03 -2.816999856040234944e-03 9.439999923757882603e-04 -3.999999945291630738e-04 -1.300002944001610475e-05 8.130000022209275725e-04 1.859999927081880649e-04 7.700001380152645140e-05 -2.660000011036066413e-04 -1.690999795019835009e-03 -2.720000128023608837e-03 -1.329999879489803742e-04 2.499003362805478877e-03 -4.143999976961638965e-02 4.143000002759932715e-02 -2.121997562653712283e-03 -2.948400012294453282e-02 3.758500004116401005e-02 -2.489999772668290146e-03 -1.647000169722246700e-03 1.861800001538958804e-02 2.118000250754831920e-03 -1.802999819114384185e-03 2.072399999010992103e-02 8.400002705203667760e-04 -2.074999915915688893e-03 2.057799999743598757e-02 -1.239996398193833637e-04 -3.229999988405723478e-03 2.099600000391083424e-02 -2.999983213295843767e-05 -6.649999809928279796e-04 2.130000000082984957e-02 -6.799999213874532381e-04 4.849999694349650930e-04 2.088700000326904754e-02 1.367999949027591707e-03 2.059000122417873214e-03 1.897699999039215157e-02 -6.419998871325487133e-04 4.199997244476341533e-05 2.102300000350179610e-02 -1.367999830491745204e-03 -8.180000839830917905e-04 1.950100000836824457e-02 6.430004412685261846e-04 -4.317999930614068761e-03 2.077900000076388087e-02 4.063900007133453701e-02 9.490030994349199544e-04 2.592599977473065975e-02 -2.355200085328150450e-02 1.403299825640280316e-02 3.768900011598640132e-02 -1.761999894890578728e-03 1.609998879636218158e-04 2.124800000956516416e-02 -1.531599896980561336e-02 -1.293000114888962979e-02 9.474000097457579983e-03 -4.118100021025315749e-02 1.780996871797728160e-03 -1.368799977446583105e-02 2.452899887975540719e-02 1.464900185290205804e-02 -2.235000150029076409e-03 1.767999882250192306e-03 1.640001146507295046e-04 -1.908500000992292139e-02 1.488100079180583110e-02 -1.269699890503282226e-02 -3.052100006945823382e-02 -6.069997805931606327e-04 -4.326000065409626484e-03 -1.952399999232830655e-02 -1.341000273351886443e-03 2.054999877238813770e-03 -2.136499999465056240e-02 6.069998920612855106e-04 1.800002662125126844e-05 -1.930800000336852992e-02 1.338999946133951355e-03 -8.059999195097198362e-04 -2.080200000658599321e-02 1.199994104193006440e-05 -6.100000181100523854e-04 -1.903899999945692437e-02 6.839998551355946270e-04 4.950000322909526781e-04 -1.946200000427002544e-02 -8.509999497304271843e-04 -2.107000084101148286e-03 -1.976199999319796716e-02 1.590001356354518876e-04 -3.205000007294057669e-03 -1.934099999767625866e-02 2.128002307261408522e-03 -3.067899984141107816e-02 -2.354999981101721113e-03 2.478000004455916706e-03 -1.643999834281825202e-03 -2.171800001203605043e-02 -2.131999970355486808e-03 -1.824000180842667547e-03 -1.962099998640971787e-02 -2.470996741798979924e-03 -4.292600018476562529e-02 2.119000056517334439e-03
1.198704284993143181e-05 1.713750000016282804e-01 7.219998287513055071e-04 -2.000617194475962070e-06 1.499988836608705433e-05 -1.116080000000039402e-01 -2.300002096342212981e-05 3.489999992433979428e-04 9.839999997783488092e-04 1.700001125078344345e-05 -2.269999997850810039e-04 -1.071999999867092679e-03 1.570000195731761309e-03 -2.600999881438287916e-03 -1.780000060680953704e-04 -1.771999788305383657e-03 -2.732000133098840596e-03 9.190000125101144756e-04 3.630000084369743594e-04 -5.199997173113277604e-05 8.159999980482339878e-04 -1.710000078283902621e-04 8.299998678654129638e-05 -2.809999991390114732e-04 -8.400002141135410325e-05 2.479999931665978399e-04 -4.809999997840534725e-04 2.079999670980362003e-04 3.730000148820472139e-04 -8.500000015207108102e-04 8.299997795377965298e-05 2.580000058188261437e-04 -4.590000007158581349e-04 -2.130000325111238390e-04 3.689999830576907612e-04 -8.339999991928561491e-04 1.873000217303932109e-03 -2.804999857410569487e-03 9.349999924631591242e-04 -3.909999943944621192e-04 -1.500002876234041015e-05 8.100000021732465649e-04 1.899999923946273529e-04 8.100001410204971835e-05 -2.680000011296815353e-04 -1.685999795674555848e-03 -2.712000127654446910e-03 -1.419999879845706677e-04 2.497003353957892319e-03 -4.132899976984956425e-02 4.134800002749949160e-02 -2.118997566964059970e-03 -2.943000012275859625e-02 3.754400004109351152e-02 -2.484999772863709551e-03 -1.645000169352086369e-03 1.861000001535999260e-02 2.113000250876845634e-03 -1.805999819511514394e-03 2.070499999014051642e-02 8.440002701941186217e-04 -2.071999915631147441e-03 2.055999999741091322e-02 -1.219996402267816327e-04 -3.225999988273441609e-03 2.097700000389579600e-02 -2.999983275620778409e-05 -6.579999810098089092e-04 2.128300000082285551e-02 -6.849999217302608478e-04 4.879999690358373323e-04 2.086600000329364921e-02 1.361999949057415144e-03 2.057000121942115928e-03 1.895499999042726813e-02 -6.359998873886864518e-04 4.399997287956629245e-05 2.100400000346667670e-02 -1.359999830849464939e-03 -8.140000833880384982e-04 1.949100000832008905e-02 6.380004402411739231e-04 -4.304999931000211277e-03 2.077100000077849659e-02 4.054100007107452885e-02 9.520030920171613457e-04 2.591999977526860885e-02 -2.350900085191958214e-02 1.401199825961394960e-02 3.764800011577002642e-02 -1.756999895060046670e-03 1.619998883247921893e-04 2.123100000953656932e-02 -1.527299897146231454e-02 -1.290700114562254482e-02 9.489000097197251155e-03 -4.107900021003012964e-02 1.778996879524999625e-03 -1.367499977502685711e-02 2.447799888184381059e-02 1.462000184902593515e-02 -2.254000149718596389e-03 1.764999882532281798e-03 1.610001144338275229e-04 -1.907500000990336453e-02 1.483600079006575957e-02 -1.267099890839522812e-02 -3.048000006923581168e-02 -6.029997812777050789e-04 -4.316000065094120590e-03 -1.951099999236037552e-02 -1.334000272848426044e-03 2.048999877777215196e-03 -2.135599999468321131e-02 5.989998918895932285e-04 2.100002602619796671e-05 -1.929800000332736881e-02 1.333999946303419297e-03 -8.069999198708902640e-04 -2.078500000655739491e-02 1.299994080564729362e-05 -6.060000180224355253e-04 -1.902699999946643947e-02 6.849998551096429713e-04 4.960000323755728389e-04 -1.945300000427654594e-02 -8.479999496807485342e-04 -2.107000083865267527e-03 -1.975299999321452823e-02 1.540001352423887968e-04 -3.199000007661221504e-03 -1.932999999765465035e-02 2.119002301997113986e-03 -3.061099984211372582e-02 -2.376999981119965952e-03 2.474000004171603238e-03 -1.638999834567365444e-03 -2.170100001201896375e-02 -2.127999970700519307e-03 -1.819000180534153252e-03 -1.961499998643679091e-02 -2.464996750665350740e-03 -4.281300018436977328e-02 2.061000056371342388e-03
1.498708233996562480e-05 1.708530000018571582e-01 7.239998292561595269e-04 -1.000616151799994915e-06 1.799988867145898969e-05 -1.113780000000124670e-01 -2.900002117927317916e-05 3.519999987916141147e-04 9.859999998084712468e-04 1.000001040393878071e-05 -2.150000003035051812e-04 -1.060999999840440229e-03 1.542000193956921889e-03 -2.575999883534959428e-03 -1.570000059385113415e-04 -1.775999789320048452e-03 -2.718000133393370498e-03 9.270000125182095404e-04 3.560000085937547023e-04 -5.399997225954569584e-05 8.169999980888707769e-04 -1.530000078339101754e-04 8.299998814688705170e-05 -2.819999992383688688e-04 -8.000002040608135867e-05 2.349999934731144343e-04 -4.769999997931475004e-04 2.199999671935214454e-04 3.740000158205754105e-04 -8.190000015879479386e-04 7.499997802001793644e-05 2.580000052257705912e-04 -4.470000006716993188e-04 -2.070000336974808580e-04 3.859999835294519884e-04 -8.159999992429562603e-04 1.874000215841005674e-03 -2.784999857325949624e-03 9.439999924376617267e-04 -3.779999934112688383e-04 -2.800002777914702425e-05 8.100000021144739167e-04 1.819999929555105836e-04 7.300001348901665181e-05 -2.760000010775316595e-04 -1.678999796056579192e-03 -2.706000127112050124e-03 -1.289999880292028893e-04 2.485003342601819262e-03 -4.118599977085501962e-02 4.125000002742288535e-02 -2.115997572572809581e-03 -2.936000012258864478e-02 3.748700004100702365e-02 -2.476999773217557817e-03 -1.642000168770018590e-03 1.858700001531283716e-02 2.118000249580091494e-03 -1.788999819135360988e-03 2.070299999009593550e-02 8.390002704911197475e-04 -2.075999916010297808e-03 2.055899999744250847e-02 -1.209996413132045250e-04 -3.211999988202805714e-03 2.097200000387629618e-02 -3.599983289807629242e-05 -6.569999814755770424e-04 2.127100000085497752e-02 -6.689999213703169386e-04 4.819999702289406367e-04 2.084900000321132305e-02 1.364999949579659465e-03 2.049000122154024349e-03 1.893999999041869747e-02 -6.349998871949148879e-04 4.099997294920329857e-05 2.099800000346415188e-02 -1.366999830511600065e-03 -8.200000839384267212e-04 1.947000000836472330e-02 6.400004390018428514e-04 -4.289999930867929682e-03 2.075200000075247062e-02 4.040400006981089559e-02 9.690030816598115817e-04 2.592399977600784791e-02 -2.345600084949496858e-02 1.397599826356841525e-02 3.759400011551343457e-02 -1.758999894834803500e-03 1.579998881595474024e-04 2.121700000955160231e-02 -1.520599897541774492e-02 -1.285200114051835915e-02 9.526000096772482134e-03 -4.096300020995837649e-02 1.778996888311094957e-03 -1.366199977566716177e-02 2.441499888475697627e-02 1.457900184422726737e-02 -2.288000149329891871e-03 1.761999882587480084e-03 1.610001142169255057e-04 -1.906500000988680180e-02 1.477900078618373490e-02 -1.261499891264222448e-02 -3.041600006897711428e-02 -6.049997833732728789e-04 -4.288000065241385356e-03 -1.950699999237730589e-02 -1.341000272887641698e-03 2.051999877281765559e-03 -2.132199999464757037e-02 6.049998918117385511e-04 2.400002650694918002e-05 -1.927100000336348651e-02 1.344999947212630097e-03 -8.179999190249731197e-04 -2.077100000660712584e-02 1.999994174632950192e-05 -6.180000174870303297e-04 -1.902099999949309270e-02 6.749998559967744591e-04 4.850000316292590787e-04 -1.944300000421035624e-02 -8.429999506181354079e-04 -2.093000083465140857e-03 -1.973099999325611184e-02 1.610001347532636793e-04 -3.191000007110833016e-03 -1.930899999770128300e-02 2.102002295782745903e-03 -3.052999984341542641e-02 -2.392999981107037447e-03 2.471000004326159329e-03 -1.638999834766287703e-03 -2.167300001200240731e-02 -2.117999971016304439e-03 -1.813000179752878756e-03 -1.958999998649798430e-02 -2.459996763778055442e-03 -4.264400018405156007e-02 2.001000056174932935e-03
