4.925300000000000233e-01 6.493799999999999573e-01 4.689180000000000348e+00 2.294090000000000185e+00 3.404669999999999863e+00 4.689180000000000348e+00 9.737980000000000302e+00 3.979499999999999815e+00 2.227739999999999831e+00 1.848119999999999985e+00 1.224239999999999995e+00 2.227780000000000094e+00 3.536709999999999798e+00 6.493799999999999573e-01 4.689199999999999591e+00 5.338230000000000253e+00 3.404650000000000176e+00 4.689189999999999969e+00 3.649640000000000217e+00 3.979499999999999815e+00 2.227730000000000210e+00 4.892269999999999897e+00 1.224239999999999995e+00 2.227770000000000028e+00 6.580860000000000376e+00 6.493900000000000228e-01 4.689180000000000348e+00 8.382410000000000139e+00 3.404659999999999798e+00 4.689189999999999969e+00 6.693810000000000038e+00 3.979509999999999881e+00 2.227739999999999831e+00 7.936449999999999783e+00 1.224239999999999995e+00 2.227780000000000094e+00 1.051460000000000061e+00 6.159950000000000259e+00 4.689189999999999969e+00 2.852990000000000137e+00 8.915219999999999700e+00 4.689180000000000348e+00 1.029687999999999981e+01 9.490059999999999718e+00 2.227739999999999831e+00 2.407029999999999781e+00 6.734799999999999898e+00 2.227780000000000094e+00 4.095609999999999751e+00 6.159950000000000259e+00 4.689189999999999969e+00 5.897160000000000402e+00 8.915229999999999322e+00 4.689180000000000348e+00 4.208560000000000301e+00 9.490059999999999718e+00 2.227730000000000210e+00 5.451190000000000424e+00 6.734790000000000276e+00 2.227770000000000028e+00 7.139780000000000015e+00 6.159950000000000259e+00 4.689189999999999969e+00 8.941319999999999268e+00 8.915229999999999322e+00 4.689180000000000348e+00 7.252720000000000056e+00 9.490069999999999339e+00 2.227739999999999831e+00 8.495369999999999422e+00 6.734799999999999898e+00 2.227770000000000028e+00 1.610360000000000014e+00 1.167051999999999978e+01 4.689189999999999969e+00 3.411910000000000220e+00 1.442578999999999922e+01 4.689180000000000348e+00 1.085580000000000034e+01 1.500061999999999962e+01 2.227730000000000210e+00 2.965959999999999930e+00 1.224535999999999980e+01 2.227770000000000028e+00 4.654539999999999900e+00 1.167051999999999978e+01 4.689180000000000348e+00 6.456080000000000041e+00 1.442578999999999922e+01 4.689169999999999838e+00 4.767470000000000319e+00 1.500062999999999924e+01 2.227739999999999831e+00 6.010110000000000063e+00 1.224536999999999942e+01 2.227770000000000028e+00 7.698690000000000033e+00 1.167051999999999978e+01 4.689199999999999591e+00 9.500239999999999796e+00 1.442577999999999960e+01 4.689180000000000348e+00 7.811639999999999695e+00 1.500061999999999962e+01 2.227739999999999831e+00 9.054270000000000707e+00 1.224536999999999942e+01 2.227770000000000028e+00 1.046598999999999968e+01 4.938530000000000086e+00 9.171929999999999694e+00 2.576130000000000031e+00 2.183260000000000201e+00 9.171960000000000335e+00 4.377659999999999663e+00 4.938530000000000086e+00 9.171920000000000073e+00 5.620309999999999917e+00 2.183260000000000201e+00 9.171960000000000335e+00 7.421829999999999927e+00 4.938519999999999577e+00 9.171929999999999694e+00 8.664469999999999672e+00 2.183269999999999822e+00 9.171960000000000335e+00 1.102491000000000021e+01 1.044908999999999999e+01 9.171920000000000073e+00 3.135060000000000180e+00 7.693830000000000169e+00 9.171969999999999956e+00 4.936580000000000190e+00 1.044908999999999999e+01 9.171910000000000451e+00 6.179219999999999935e+00 7.693830000000000169e+00 9.171969999999999956e+00 7.980739999999999945e+00 1.044908999999999999e+01 9.171910000000000451e+00 9.223380000000000578e+00 7.693819999999999659e+00 9.171969999999999956e+00 1.158381999999999934e+01 1.595965999999999951e+01 9.171920000000000073e+00 3.693970000000000198e+00 1.320439000000000007e+01 9.171960000000000335e+00 5.495499999999999829e+00 1.595965999999999951e+01 9.171920000000000073e+00 6.738139999999999574e+00 1.320439000000000007e+01 9.171950000000000713e+00 8.539659999999999584e+00 1.595965999999999951e+01 9.171920000000000073e+00 9.782289999999999708e+00 1.320439000000000007e+01 9.171969999999999956e+00 1.220550000000000024e+00 1.608409999999999895e+00 1.163335999999999970e+01 3.022089999999999943e+00 4.363690000000000069e+00 1.163335999999999970e+01 4.264710000000000001e+00 1.608409999999999895e+00 1.163338000000000072e+01 6.066259999999999764e+00 4.363690000000000069e+00 1.163336999999999932e+01 7.308889999999999887e+00 1.608419999999999961e+00 1.163338000000000072e+01 9.110419999999999519e+00 4.363679999999999559e+00 1.163335999999999970e+01 1.779460000000000042e+00 7.118979999999999642e+00 1.163336999999999932e+01 3.581010000000000026e+00 9.874259999999999593e+00 1.163338000000000072e+01 4.823629999999999640e+00 7.118970000000000020e+00 1.163338000000000072e+01 6.625180000000000291e+00 9.874240000000000350e+00 1.163335999999999970e+01 7.867799999999999905e+00 7.118979999999999642e+00 1.163338000000000072e+01 9.669340000000000046e+00 9.874240000000000350e+00 1.163336999999999932e+01 2.338379999999999903e+00 1.262955000000000005e+01 1.163336999999999932e+01 4.139940000000000175e+00 1.538480000000000025e+01 1.163336999999999932e+01 5.382559999999999789e+00 1.262953000000000081e+01 1.163335999999999970e+01 7.184090000000000309e+00 1.538480999999999987e+01 1.163338000000000072e+01 8.426709999999999923e+00 1.262954000000000043e+01 1.163338000000000072e+01 1.022826000000000057e+01 1.538480999999999987e+01 1.163335999999999970e+01 1.948579999999999979e+00 2.567439999999999944e+00 1.857755999999999830e+01 3.750109999999999832e+00 5.322709999999999830e+00 1.857754999999999868e+01 1.119401000000000046e+01 5.897560000000000358e+00 1.611609999999999943e+01 3.304159999999999986e+00 3.142290000000000028e+00 1.611614000000000146e+01 4.992740000000000400e+00 2.567450000000000010e+00 1.857755999999999830e+01 6.794279999999999653e+00 5.322720000000000340e+00 1.857754999999999868e+01 5.105680000000000440e+00 5.897549999999999848e+00 1.611609999999999943e+01 6.348320000000000185e+00 3.142290000000000028e+00 1.611614000000000146e+01 8.036889999999999645e+00 2.567439999999999944e+00 1.857755999999999830e+01 9.838440000000000296e+00 5.322709999999999830e+00 1.857754999999999868e+01 8.149839999999999307e+00 5.897549999999999848e+00 1.611610999999999905e+01 9.392480000000000828e+00 3.142290000000000028e+00 1.611614000000000146e+01 2.507490000000000219e+00 8.077999999999999403e+00 1.857755999999999830e+01 4.309029999999999916e+00 1.083328000000000024e+01 1.857754999999999868e+01 1.175292999999999921e+01 1.140812999999999988e+01 1.611609999999999943e+01 3.863059999999999938e+00 8.652850000000000819e+00 1.611614000000000146e+01 5.551650000000000418e+00 8.078010000000000801e+00 1.857755999999999830e+01 7.353200000000000180e+00 1.083327000000000062e+01 1.857755999999999830e+01 5.664600000000000080e+00 1.140811000000000064e+01 1.611609999999999943e+01 6.907239999999999824e+00 8.652850000000000819e+00 1.611615000000000109e+01 8.595810000000000173e+00 8.078010000000000801e+00 1.857754999999999868e+01 1.039734999999999943e+01 1.083328000000000024e+01 1.857754999999999868e+01 8.708759999999999835e+00 1.140812000000000026e+01 1.611610999999999905e+01 9.951399999999999579e+00 8.652850000000000819e+00 1.611614000000000146e+01 3.066409999999999858e+00 1.358858000000000033e+01 1.857755999999999830e+01 4.867950000000000443e+00 1.634384999999999977e+01 1.857753999999999905e+01 1.231184999999999974e+01 1.691867999999999839e+01 1.611610999999999905e+01 4.421990000000000087e+00 1.416342000000000034e+01 1.611614000000000146e+01 6.110579999999999679e+00 1.358857000000000070e+01 1.857755999999999830e+01 7.912099999999999689e+00 1.634384000000000015e+01 1.857754999999999868e+01 6.223510000000000097e+00 1.691867999999999839e+01 1.611609999999999943e+01 7.466160000000000352e+00 1.416342000000000034e+01 1.611615000000000109e+01 9.154730000000000700e+00 1.358855999999999931e+01 1.857754999999999868e+01 1.095626999999999995e+01 1.634384000000000015e+01 1.857755999999999830e+01 9.267680000000000362e+00 1.691867999999999839e+01 1.611610999999999905e+01 1.051031000000000049e+01 1.416341000000000072e+01 1.611614000000000146e+01 5.489800000000000235e-01 2.314449999999999896e+00 3.458450000000000024e+00 1.930900000000000061e+00 2.927579999999999849e+00 1.213710000000000067e+00 1.293799999999999950e-01 1.722599999999999965e-01 1.213689999999999936e+00 2.350540000000000074e+00 5.069749999999999979e+00 3.458530000000000104e+00 3.593129999999999935e+00 2.314449999999999896e+00 3.458450000000000024e+00 4.975080000000000169e+00 2.927579999999999849e+00 1.213689999999999936e+00 3.173540000000000028e+00 1.722599999999999965e-01 1.213689999999999936e+00 5.394680000000000142e+00 5.069749999999999979e+00 3.458520000000000039e+00 6.637290000000000134e+00 2.314459999999999962e+00 3.458450000000000024e+00 8.019239999999999924e+00 2.927579999999999849e+00 1.213689999999999936e+00 6.217710000000000292e+00 1.722499999999999865e-01 1.213700000000000001e+00 8.438850000000000406e+00 5.069740000000000357e+00 3.458520000000000039e+00 1.107879999999999976e+00 7.825020000000000309e+00 3.458450000000000024e+00 2.489819999999999922e+00 8.438140000000000640e+00 1.213710000000000067e+00 6.882899999999999574e-01 5.682809999999999917e+00 1.213689999999999936e+00 2.909450000000000092e+00 1.058029999999999937e+01 3.458540000000000170e+00 4.152059999999999640e+00 7.825009999999999799e+00 3.458460000000000090e+00 5.533979999999999677e+00 8.438129999999999242e+00 1.213700000000000001e+00 3.732460000000000111e+00 5.682820000000000427e+00 1.213689999999999936e+00 5.953610000000000291e+00 1.058032000000000039e+01 3.458540000000000170e+00 7.196209999999999773e+00 7.825020000000000309e+00 3.458450000000000024e+00 8.578150000000000830e+00 8.438150000000000261e+00 1.213700000000000001e+00 6.776629999999999932e+00 5.682830000000000048e+00 1.213680000000000092e+00 8.997769999999999158e+00 1.058032000000000039e+01 3.458530000000000104e+00 1.666800000000000059e+00 1.333558000000000021e+01 3.458460000000000090e+00 3.048750000000000071e+00 1.394871000000000016e+01 1.213700000000000001e+00 1.247219999999999995e+00 1.119337999999999944e+01 1.213700000000000001e+00 3.468370000000000175e+00 1.609086999999999890e+01 3.458520000000000039e+00 4.710969999999999658e+00 1.333558000000000021e+01 3.458439999999999959e+00 6.092900000000000205e+00 1.394870000000000054e+01 1.213700000000000001e+00 4.291380000000000194e+00 1.119339000000000084e+01 1.213689999999999936e+00 6.512520000000000309e+00 1.609086999999999890e+01 3.458530000000000104e+00 7.755139999999999922e+00 1.333558000000000021e+01 3.458439999999999959e+00 9.137069999999999581e+00 1.394871000000000016e+01 1.213689999999999936e+00 7.335539999999999949e+00 1.119337999999999944e+01 1.213689999999999936e+00 9.556699999999999307e+00 1.609087999999999852e+01 3.458530000000000104e+00 1.010116999999999976e+01 4.456599999999999895e+00 5.703389999999999738e+00 2.211320000000000174e+00 1.701349999999999918e+00 5.703450000000000131e+00 4.012830000000000119e+00 4.456599999999999895e+00 5.703380000000000116e+00 5.255460000000000242e+00 1.701340000000000074e+00 5.703439999999999621e+00 7.057000000000000384e+00 4.456599999999999895e+00 5.703389999999999738e+00 8.299640000000000128e+00 1.701349999999999918e+00 5.703459999999999752e+00 1.066008000000000067e+01 9.967159999999999798e+00 5.703389999999999738e+00 2.770230000000000192e+00 7.211909999999999599e+00 5.703439999999999621e+00 4.571749999999999758e+00 9.967159999999999798e+00 5.703380000000000116e+00 5.814390000000000391e+00 7.211899999999999977e+00 5.703459999999999752e+00 7.615920000000000023e+00 9.967159999999999798e+00 5.703389999999999738e+00 8.858549999999999258e+00 7.211899999999999977e+00 5.703459999999999752e+00 1.121899999999999942e+01 1.547771999999999970e+01 5.703380000000000116e+00 3.329140000000000210e+00 1.272245999999999988e+01 5.703439999999999621e+00 5.130679999999999907e+00 1.547771999999999970e+01 5.703380000000000116e+00 6.373310000000000031e+00 1.272247999999999912e+01 5.703459999999999752e+00 8.174830000000000041e+00 1.547771999999999970e+01 5.703389999999999738e+00 9.417460000000000164e+00 1.272247999999999912e+01 5.703450000000000131e+00 1.276990000000000069e+00 3.273470000000000102e+00 1.040263999999999989e+01 2.658939999999999859e+00 3.886610000000000120e+00 8.157880000000000464e+00 8.573899999999999855e-01 1.131269999999999998e+00 8.157870000000000843e+00 3.078549999999999898e+00 6.028769999999999740e+00 1.040272000000000041e+01 4.321150000000000269e+00 3.273480000000000167e+00 1.040263999999999989e+01 5.703090000000000437e+00 3.886610000000000120e+00 8.157880000000000464e+00 3.901569999999999983e+00 1.131289999999999907e+00 8.157880000000000464e+00 6.122709999999999653e+00 6.028769999999999740e+00 1.040272000000000041e+01 7.365319999999999645e+00 3.273489999999999789e+00 1.040263000000000027e+01 8.747260000000000701e+00 3.886610000000000120e+00 8.157899999999999707e+00 6.945730000000000182e+00 1.131280000000000063e+00 8.157870000000000843e+00 9.166880000000000805e+00 6.028780000000000250e+00 1.040271000000000079e+01 1.835900000000000087e+00 8.784050000000000580e+00 1.040263999999999989e+01 3.217849999999999877e+00 9.397169999999999135e+00 8.157890000000000086e+00 1.416330000000000089e+00 6.641849999999999810e+00 8.157870000000000843e+00 3.637469999999999981e+00 1.153935000000000066e+01 1.040271000000000079e+01 4.880080000000000418e+00 8.784050000000000580e+00 1.040263999999999989e+01 6.261999999999999567e+00 9.397169999999999135e+00 8.157880000000000464e+00 4.460479999999999556e+00 6.641849999999999810e+00 8.157870000000000843e+00 6.681630000000000180e+00 1.153933999999999926e+01 1.040272000000000041e+01 7.924229999999999663e+00 8.784039999999999182e+00 1.040263000000000027e+01 9.306169999999999831e+00 9.397169999999999135e+00 8.157880000000000464e+00 7.504640000000000200e+00 6.641849999999999810e+00 8.157880000000000464e+00 9.725799999999999557e+00 1.153935000000000066e+01 1.040272000000000041e+01 2.394820000000000171e+00 1.429461000000000048e+01 1.040263000000000027e+01 3.776769999999999960e+00 1.490774000000000044e+01 8.157890000000000086e+00 1.975240000000000107e+00 1.215240999999999971e+01 8.157870000000000843e+00 4.196380000000000443e+00 1.704990000000000094e+01 1.040271000000000079e+01 5.438979999999999926e+00 1.429460000000000086e+01 1.040263000000000027e+01 6.820929999999999715e+00 1.490774000000000044e+01 8.157880000000000464e+00 5.019389999999999574e+00 1.215240000000000009e+01 8.157870000000000843e+00 7.240540000000000198e+00 1.704990000000000094e+01 1.040273000000000003e+01 8.483150000000000190e+00 1.429461000000000048e+01 1.040263000000000027e+01 9.865090000000000359e+00 1.490771999999999942e+01 8.157880000000000464e+00 8.063549999999999329e+00 1.215241999999999933e+01 8.157870000000000843e+00 1.028471000000000046e+01 1.704990000000000094e+01 1.040272000000000041e+01 1.082917999999999914e+01 5.415630000000000166e+00 1.264757999999999960e+01 2.939340000000000064e+00 2.660359999999999836e+00 1.264762999999999948e+01 4.740870000000000140e+00 5.415639999999999787e+00 1.264756999999999998e+01 5.983500000000000263e+00 2.660379999999999967e+00 1.264765000000000050e+01 7.785020000000000273e+00 5.415630000000000166e+00 1.264757999999999960e+01 9.027659999999999130e+00 2.660369999999999902e+00 1.264764000000000088e+01 1.138809999999999967e+01 1.092619000000000007e+01 1.264756999999999998e+01 3.498250000000000082e+00 8.170939999999999870e+00 1.264764000000000088e+01 5.299789999999999779e+00 1.092619000000000007e+01 1.264757999999999960e+01 6.542410000000000281e+00 8.170939999999999870e+00 1.264762999999999948e+01 8.343939999999999912e+00 1.092619000000000007e+01 1.264756999999999998e+01 9.586570000000000036e+00 8.170930000000000248e+00 1.264762999999999948e+01 1.194701000000000057e+01 1.643675999999999959e+01 1.264757999999999960e+01 4.057170000000000165e+00 1.368149999999999977e+01 1.264764000000000088e+01 5.858690000000000175e+00 1.643674999999999997e+01 1.264757999999999960e+01 7.101329999999999920e+00 1.368149999999999977e+01 1.264762999999999948e+01 8.902850000000000819e+00 1.643674999999999997e+01 1.264757999999999960e+01 1.014550000000000018e+01 1.368149999999999977e+01 1.264762999999999948e+01 3.386960000000000193e+00 4.845640000000000391e+00 1.510205999999999982e+01 1.585420000000000051e+00 2.090310000000000112e+00 1.510205000000000020e+01 6.431110000000000326e+00 4.845620000000000260e+00 1.510208000000000084e+01 4.629590000000000316e+00 2.090310000000000112e+00 1.510205999999999982e+01 9.475270000000000081e+00 4.845640000000000391e+00 1.510208000000000084e+01 7.673750000000000071e+00 2.090310000000000112e+00 1.510205000000000020e+01 3.945860000000000145e+00 1.035618999999999978e+01 1.510206999999999944e+01 2.144340000000000135e+00 7.600869999999999571e+00 1.510205999999999982e+01 6.990029999999999966e+00 1.035618999999999978e+01 1.510206999999999944e+01 5.188500000000000334e+00 7.600880000000000081e+00 1.510205999999999982e+01 1.003420000000000023e+01 1.035619999999999941e+01 1.510208000000000084e+01 8.232659999999999201e+00 7.600880000000000081e+00 1.510205000000000020e+01 4.504789999999999850e+00 1.586675999999999931e+01 1.510208000000000084e+01 2.703260000000000218e+00 1.311143000000000036e+01 1.510205999999999982e+01 7.548949999999999605e+00 1.586675999999999931e+01 1.510206999999999944e+01 5.747410000000000352e+00 1.311143999999999998e+01 1.510205000000000020e+01 1.059309999999999974e+01 1.586674999999999969e+01 1.510206999999999944e+01 8.791579999999999728e+00 1.311143000000000036e+01 1.510205999999999982e+01 2.005020000000000024e+00 4.232510000000000439e+00 1.734681000000000139e+01 1.155721999999999916e+01 6.374660000000000437e+00 1.959176000000000073e+01 3.806560000000000166e+00 6.987800000000000011e+00 1.734690000000000154e+01 3.667349999999999888e+00 3.619409999999999794e+00 1.959183000000000163e+01 5.049159999999999648e+00 4.232510000000000439e+00 1.734682000000000102e+01 5.468890000000000029e+00 6.374660000000000437e+00 1.959176000000000073e+01 6.850730000000000430e+00 6.987790000000000390e+00 1.734690000000000154e+01 6.711509999999999643e+00 3.619400000000000173e+00 1.959180999999999884e+01 8.093339999999999534e+00 4.232510000000000439e+00 1.734682000000000102e+01 8.513040000000000163e+00 6.374660000000000437e+00 1.959177000000000035e+01 9.894899999999999807e+00 6.987800000000000011e+00 1.734691000000000116e+01 9.755679999999999907e+00 3.619400000000000173e+00 1.959183000000000163e+01 2.563919999999999977e+00 9.743080000000000851e+00 1.734682000000000102e+01 1.211612000000000045e+01 1.188522000000000034e+01 1.959176000000000073e+01 4.365479999999999805e+00 1.249836999999999954e+01 1.734690000000000154e+01 4.226270000000000415e+00 9.129970000000000141e+00 1.959180999999999884e+01 5.608089999999999797e+00 9.743059999999999832e+00 1.734683000000000064e+01 6.027800000000000047e+00 1.188522000000000034e+01 1.959176000000000073e+01 7.409650000000000070e+00 1.249836999999999954e+01 1.734691000000000116e+01 7.270430000000000170e+00 9.129970000000000141e+00 1.959183000000000163e+01 8.652240000000000819e+00 9.743069999999999453e+00 1.734681000000000139e+01 9.071949999999999292e+00 1.188522000000000034e+01 1.959175000000000111e+01 1.045382000000000033e+01 1.249836999999999954e+01 1.734690000000000154e+01 1.031459000000000081e+01 9.129970000000000141e+00 1.959183000000000163e+01 3.122829999999999995e+00 1.525364000000000075e+01 1.734682000000000102e+01 1.267505000000000059e+01 1.739577999999999847e+01 1.959176000000000073e+01 4.924409999999999954e+00 1.800893999999999906e+01 1.734690000000000154e+01 4.785180000000000433e+00 1.464052000000000042e+01 1.959183000000000163e+01 6.167010000000000325e+00 1.525364000000000075e+01 1.734683000000000064e+01 6.586710000000000065e+00 1.739577999999999847e+01 1.959176000000000073e+01 7.968569999999999709e+00 1.800893999999999906e+01 1.734690000000000154e+01 7.829329999999999679e+00 1.464053000000000004e+01 1.959181999999999846e+01 9.211159999999999570e+00 1.525362999999999936e+01 1.734681000000000139e+01 9.630869999999999820e+00 1.739577999999999847e+01 1.959175000000000111e+01 1.101272999999999946e+01 1.800892999999999944e+01 1.734691000000000116e+01 1.087350999999999956e+01 1.464052000000000042e+01 1.959180999999999884e+01