-2.763190557899999931e+03
-2.763231353409999883e+03
-2.763205404129999806e+03
-2.763113604669999859e+03
-2.762957432340000196e+03
-2.762739100849999886e+03
-2.762461403740000151e+03
-2.762127950300000066e+03
-2.761742795680000199e+03
-2.761310633520000010e+03
