2.767439999999999900e-01 -1.621289999999999953e-01 1.955060000000000131e-01 2.773450000000000082e-01 -1.631469999999999865e-01 1.950919999999999876e-01 -2.779619999999999869e-01 1.617639999999999911e-01 -1.929379999999999984e-01 -2.766959999999999975e-01 1.622919999999999918e-01 -1.939410000000000023e-01 2.757709999999999884e-01 -1.620409999999999906e-01 1.943509999999999960e-01 2.765960000000000085e-01 -1.627049999999999885e-01 1.949799999999999867e-01 -2.777129999999999876e-01 1.623960000000000126e-01 -1.929470000000000074e-01 -2.773599999999999954e-01 1.618010000000000004e-01 -1.935139999999999916e-01 2.772240000000000260e-01 -1.620080000000000131e-01 1.951569999999999971e-01 2.763160000000000061e-01 -1.624579999999999913e-01 1.942659999999999942e-01 -2.766290000000000138e-01 1.621150000000000091e-01 -1.930340000000000111e-01 -2.768789999999999862e-01 1.617899999999999894e-01 -1.936950000000000061e-01 2.761899999999999911e-01 -1.611599999999999977e-01 1.943560000000000010e-01 2.774590000000000112e-01 -1.622689999999999966e-01 1.950369999999999882e-01 -2.777899999999999814e-01 1.625830000000000053e-01 -1.928880000000000039e-01 -2.763450000000000073e-01 1.619869999999999921e-01 -1.945610000000000117e-01 2.757990000000000164e-01 -1.615550000000000042e-01 1.948709999999999887e-01 2.769220000000000015e-01 -1.625330000000000108e-01 1.955739999999999978e-01 -2.775219999999999909e-01 1.625060000000000116e-01 -1.930399999999999894e-01 -2.773849999999999927e-01 1.618400000000000116e-01 -1.947639999999999927e-01 2.770139999999999825e-01 -1.619099999999999984e-01 1.952000000000000124e-01 2.760659999999999781e-01 -1.628219999999999945e-01 1.946420000000000095e-01 -2.771339999999999915e-01 1.628060000000000063e-01 -1.930959999999999899e-01 -2.779409999999999936e-01 1.616370000000000029e-01 -1.940139999999999920e-01 2.764769999999999728e-01 -1.626489999999999880e-01 1.952049999999999896e-01 2.772519999999999984e-01 -1.622220000000000051e-01 1.946799999999999919e-01 -2.778419999999999779e-01 1.624790000000000123e-01 -1.938040000000000040e-01 -2.763769999999999838e-01 1.620250000000000024e-01 -1.935479999999999978e-01 2.760440000000000116e-01 -1.623030000000000028e-01 1.948169999999999902e-01 2.764800000000000035e-01 -1.617099999999999926e-01 1.940479999999999983e-01 -2.781199999999999783e-01 1.619929999999999981e-01 -1.934569999999999901e-01 -2.774099999999999899e-01 1.615250000000000019e-01 -1.935840000000000061e-01 2.773519999999999874e-01 -1.627669999999999950e-01 1.951009999999999966e-01 2.758599999999999941e-01 -1.613590000000000024e-01 1.945540000000000047e-01 -2.769349999999999867e-01 1.624670000000000003e-01 -1.934670000000000001e-01 -2.770190000000000152e-01 1.619680000000000009e-01 -1.935540000000000038e-01 -2.776589999999999892e-01 1.617530000000000079e-01 -1.933040000000000036e-01 -2.766259999999999830e-01 1.627550000000000108e-01 -1.939829999999999888e-01 -2.776879999999999904e-01 1.621370000000000033e-01 -1.930499999999999994e-01 -2.775880000000000014e-01 1.620020000000000071e-01 -1.934470000000000078e-01 -2.766950000000000243e-01 1.621750000000000136e-01 -1.931859999999999966e-01 -2.769469999999999987e-01 1.618549999999999989e-01 -1.936599999999999988e-01 -2.778979999999999784e-01 1.628209999999999935e-01 -1.928769999999999929e-01 -2.765000000000000235e-01 1.619839999999999891e-01 -1.943060000000000065e-01 -2.776529999999999831e-01 1.625010000000000066e-01 -1.927379999999999927e-01 -2.774960000000000204e-01 1.620189999999999964e-01 -1.947679999999999967e-01 -2.773129999999999762e-01 1.632319999999999882e-01 -1.930080000000000129e-01 -2.776509999999999811e-01 1.619220000000000104e-01 -1.943670000000000120e-01 -2.778439999999999799e-01 1.621519999999999906e-01 -1.938229999999999953e-01 -2.762549999999999728e-01 1.618310000000000026e-01 -1.938259999999999983e-01 -2.782140000000000168e-01 1.618729999999999891e-01 -1.931809999999999916e-01 -2.774730000000000252e-01 1.617109999999999936e-01 -1.936299999999999966e-01 -2.770360000000000045e-01 1.622750000000000026e-01 -1.933189999999999908e-01 -2.771069999999999922e-01 1.620270000000000044e-01 -1.939069999999999960e-01 2.766779999999999795e-01 -1.621460000000000123e-01 1.956960000000000088e-01 2.774860000000000104e-01 -1.632109999999999950e-01 1.952389999999999959e-01 2.760540000000000216e-01 -1.624269999999999881e-01 1.945040000000000102e-01 2.764429999999999943e-01 -1.630300000000000082e-01 1.951019999999999976e-01 2.770619999999999750e-01 -1.619669999999999999e-01 1.951380000000000059e-01 2.763849999999999918e-01 -1.626410000000000078e-01 1.945689999999999920e-01 2.764639999999999875e-01 -1.612020000000000119e-01 1.944520000000000137e-01 2.774610000000000132e-01 -1.621269999999999933e-01 1.949869999999999937e-01 2.756419999999999981e-01 -1.610070000000000112e-01 1.949950000000000017e-01 2.767390000000000128e-01 -1.622039999999999871e-01 1.955340000000000134e-01 2.769039999999999835e-01 -1.616070000000000007e-01 1.952260000000000106e-01 2.761319999999999886e-01 -1.623829999999999996e-01 1.944369999999999987e-01 2.764499999999999735e-01 -1.629670000000000007e-01 1.951440000000000119e-01 2.769840000000000080e-01 -1.617020000000000124e-01 1.948600000000000054e-01 2.758160000000000056e-01 -1.624529999999999863e-01 1.947079999999999922e-01 2.765710000000000113e-01 -1.613989999999999869e-01 1.937309999999999865e-01 2.773800000000000154e-01 -1.628020000000000023e-01 1.947560000000000124e-01 2.758209999999999829e-01 -1.616049999999999986e-01 1.947019999999999862e-01 2.765210000000000168e-01 -1.617270000000000096e-01 1.958239999999999981e-01 2.775469999999999882e-01 -1.629899999999999960e-01 1.949549999999999894e-01 -2.778630000000000266e-01 1.619889999999999941e-01 -1.927750000000000019e-01 -2.768160000000000065e-01 1.627409999999999968e-01 -1.938789999999999958e-01 2.756759999999999766e-01 -1.624410000000000021e-01 1.947460000000000024e-01 2.764240000000000030e-01 -1.630330000000000112e-01 1.951469999999999871e-01 -2.779130000000000211e-01 1.628549999999999998e-01 -1.927570000000000117e-01 -2.775380000000000069e-01 1.618829999999999991e-01 -1.935290000000000066e-01 2.773550000000000182e-01 -1.616579999999999961e-01 1.951600000000000001e-01 2.763909999999999978e-01 -1.626720000000000110e-01 1.946469999999999867e-01 -2.767089999999999828e-01 1.624960000000000016e-01 -1.929230000000000111e-01 -2.768109999999999737e-01 1.619510000000000116e-01 -1.936549999999999938e-01 2.762800000000000256e-01 -1.610810000000000020e-01 1.940560000000000063e-01 2.774389999999999912e-01 -1.621680000000000066e-01 1.947309999999999874e-01 -2.779320000000000124e-01 1.622290000000000121e-01 -1.925350000000000117e-01 -2.764340000000000130e-01 1.620109999999999884e-01 -1.941730000000000123e-01 2.755630000000000024e-01 -1.616859999999999964e-01 1.949180000000000079e-01 2.767260000000000275e-01 -1.621930000000000038e-01 1.950349999999999862e-01 -2.775380000000000069e-01 1.623439999999999883e-01 -1.928489999999999926e-01 -2.777279999999999749e-01 1.621140000000000081e-01 -1.945129999999999915e-01 2.769769999999999732e-01 -1.618050000000000044e-01 1.950010000000000077e-01 2.761430000000000273e-01 -1.625880000000000103e-01 1.942159999999999997e-01 -2.773229999999999862e-01 1.627319999999999878e-01 -1.928159999999999874e-01 -2.777760000000000229e-01 1.618169999999999886e-01 -1.938400000000000123e-01 2.766390000000000238e-01 -1.630079999999999862e-01 1.950169999999999959e-01 2.771239999999999815e-01 -1.621779999999999888e-01 1.949750000000000094e-01 -2.780099999999999794e-01 1.622309999999999863e-01 -1.939329999999999943e-01 -2.762780000000000236e-01 1.618719999999999881e-01 -1.934250000000000136e-01 2.757800000000000251e-01 -1.622830000000000106e-01 1.945510000000000017e-01 2.764480000000000270e-01 -1.614339999999999942e-01 1.939079999999999970e-01 -2.782200000000000228e-01 1.618620000000000059e-01 -1.934220000000000106e-01 -2.775839999999999974e-01 1.616239999999999899e-01 -1.935540000000000038e-01 2.771480000000000055e-01 -1.626259999999999928e-01 1.949410000000000032e-01 2.760759999999999881e-01 -1.615360000000000129e-01 1.944859999999999922e-01 -2.770580000000000265e-01 1.623229999999999951e-01 -1.935749999999999971e-01 -2.771109999999999962e-01 1.621889999999999998e-01 -1.935149999999999926e-01 1.069999999999999988e-04 -5.680000000000000370e-04 2.040000000000000147e-03 1.456604999999999928e+00 9.962170000000000192e-01 -1.224549000000000110e+00 1.455159000000000091e+00 9.964469999999999716e-01 -1.224309000000000092e+00 1.849999999999999973e-04 -9.299999999999999727e-05 -7.439999999999999782e-04 1.849999999999999973e-04 -7.010000000000000172e-04 1.832000000000000078e-03 1.455980000000000052e+00 9.963459999999999539e-01 -1.224056999999999951e+00 1.454763000000000028e+00 9.961919999999999664e-01 -1.224536999999999987e+00 7.619999999999999820e-04 -4.600000000000000004e-05 -3.020000000000000223e-04 8.869999999999999846e-04 -5.739999999999999660e-04 1.685999999999999999e-03 1.455360999999999905e+00 9.963720000000000354e-01 -1.224094000000000015e+00 1.455475999999999992e+00 9.965899999999999759e-01 -1.224375999999999909e+00 5.839999999999999922e-04 6.600000000000000506e-05 -7.640000000000000306e-04 -1.269999999999999970e-04 -4.400000000000000157e-04 9.529999999999999626e-04 1.456483999999999890e+00 9.966720000000000024e-01 -1.225106999999999946e+00 1.455000000000000071e+00 9.977070000000000105e-01 -1.223737999999999992e+00 1.203999999999999992e-03 -7.929999999999999766e-04 -1.946000000000000030e-03 0.000000000000000000e+00 -1.740000000000000010e-04 9.590000000000000000e-04 1.455926999999999971e+00 9.968970000000000331e-01 -1.225224000000000091e+00 1.455268999999999924e+00 9.980850000000000000e-01 -1.223978000000000010e+00 9.190000000000000035e-04 -1.048000000000000103e-03 -1.410000000000000012e-03 2.849999999999999886e-04 -7.259999999999999743e-04 9.389999999999999476e-04 1.455227000000000048e+00 9.965549999999999686e-01 -1.224923999999999902e+00 1.455505999999999966e+00 9.973889999999999700e-01 -1.223886999999999947e+00 3.310000000000000225e-04 -1.093999999999999920e-03 -1.294000000000000011e-03 4.739999999999999747e-04 -1.123999999999999999e-03 2.990000000000000036e-04 1.455842999999999998e+00 9.955500000000000460e-01 -1.225918000000000063e+00 1.455295000000000005e+00 9.971560000000000423e-01 -1.224477999999999955e+00 4.159999999999999744e-04 1.299999999999999920e-05 -6.620000000000000450e-04 5.330000000000000536e-04 -1.348000000000000023e-03 5.419999999999999471e-04 1.455329000000000095e+00 9.955129999999999812e-01 -1.225837999999999983e+00 1.455386999999999986e+00 9.965680000000000094e-01 -1.224760999999999989e+00 6.970000000000000284e-04 3.220000000000000206e-04 -9.169999999999999549e-04 -9.699999999999999963e-05 -1.131000000000000061e-03 5.599999999999999509e-04 1.455573999999999923e+00 9.960080000000000044e-01 -1.225950000000000095e+00 1.455918000000000045e+00 9.970069999999999766e-01 -1.225089000000000095e+00 2.280000000000000126e-04 2.620000000000000258e-04 -3.249999999999999851e-04 -1.455111000000000043e+00 -9.957500000000000240e-01 1.223892999999999898e+00 -1.454369999999999941e+00 -9.957690000000000152e-01 1.222359999999999891e+00 -1.454844000000000026e+00 -9.955690000000000373e-01 1.223937000000000053e+00 -1.454661999999999900e+00 -9.955929999999999502e-01 1.222755999999999954e+00 -1.455351000000000061e+00 -9.952670000000000128e-01 1.224069999999999991e+00 -1.455076000000000036e+00 -9.956300000000000150e-01 1.222237999999999936e+00 -1.455359000000000069e+00 -9.970269999999999966e-01 1.222842999999999902e+00 -1.455016000000000087e+00 -9.966190000000000326e-01 1.221959999999999935e+00 -1.454855000000000009e+00 -9.966479999999999784e-01 1.222439999999999971e+00 -1.454280999999999935e+00 -9.963130000000000042e-01 1.221891000000000060e+00 -1.454792000000000085e+00 -9.973100000000000298e-01 1.222445000000000004e+00 -1.455494999999999983e+00 -9.964370000000000172e-01 1.221707000000000098e+00 -1.454658000000000007e+00 -9.950240000000000196e-01 1.223548999999999998e+00 -1.454960999999999949e+00 -9.957669999999999577e-01 1.221452999999999900e+00 -1.455375000000000085e+00 -9.951609999999999623e-01 1.223359000000000085e+00 -1.454978000000000105e+00 -9.959879999999999844e-01 1.220890999999999948e+00 -1.454709000000000030e+00 -9.950059999999999460e-01 1.222690999999999972e+00 -1.454604000000000008e+00 -9.959500000000000020e-01 1.221257999999999955e+00 6.849999999999999535e-04 -8.379999999999999862e-04 1.621000000000000045e-03 1.456186999999999898e+00 9.965460000000000429e-01 -1.225524000000000058e+00 1.455132000000000092e+00 9.981090000000000240e-01 -1.224989000000000106e+00 4.600000000000000139e-04 -7.399999999999999894e-04 -1.436999999999999909e-03 2.090000000000000115e-04 -8.300000000000000086e-04 1.544999999999999932e-03 1.455856000000000039e+00 9.964049999999999851e-01 -1.225518000000000107e+00 1.454671000000000047e+00 9.976429999999999465e-01 -1.224989000000000106e+00 7.699999999999999597e-04 -8.120000000000000048e-04 -9.770000000000000039e-04 7.240000000000000342e-04 -1.208000000000000089e-03 1.843999999999999936e-03 1.455629999999999979e+00 9.966120000000000534e-01 -1.225934000000000079e+00 1.455540999999999974e+00 9.980930000000000080e-01 -1.224812000000000012e+00 7.749999999999999728e-04 -1.165999999999999936e-03 -1.098999999999999934e-03 5.890000000000000053e-04 -9.240000000000000166e-04 7.739999999999999485e-04 1.456439999999999957e+00 9.954589999999999828e-01 -1.225722999999999896e+00 1.454852000000000034e+00 9.961809999999999832e-01 -1.224844999999999962e+00 1.350999999999999987e-03 -5.820000000000000520e-04 3.899999999999999929e-05 2.280000000000000126e-04 -7.119999999999999593e-04 1.056000000000000081e-03 1.455977000000000077e+00 9.951510000000000078e-01 -1.225832999999999950e+00 1.455586999999999964e+00 9.967989999999999906e-01 -1.225138999999999978e+00 9.569999999999999514e-04 -6.570000000000000319e-04 -5.000000000000000240e-05 4.229999999999999819e-04 -1.293000000000000095e-03 9.009999999999999997e-04 1.455467999999999984e+00 9.950809999999999933e-01 -1.225657999999999914e+00 1.455845999999999973e+00 9.965939999999999799e-01 -1.225621999999999989e+00 7.299999999999999632e-04 -5.379999999999999583e-04 1.079999999999999960e-04 4.130000000000000099e-04 -4.679999999999999915e-04 2.798999999999999839e-03 1.455872999999999973e+00 9.969440000000000524e-01 -1.225967000000000029e+00 1.455518000000000089e+00 9.965760000000000174e-01 -1.223973999999999895e+00 6.920000000000000153e-04 1.269999999999999970e-04 3.080000000000000055e-04 6.800000000000000488e-04 -3.820000000000000153e-04 2.040000000000000147e-03 1.455154000000000059e+00 9.967479999999999674e-01 -1.225357000000000030e+00 1.455411999999999928e+00 9.964439999999999964e-01 -1.224393000000000065e+00 8.800000000000000313e-04 6.920000000000000153e-04 -3.570000000000000040e-04 -6.999999999999999895e-06 -3.260000000000000094e-04 2.505999999999999981e-03 1.455514999999999892e+00 9.975110000000000365e-01 -1.225797000000000025e+00 1.456077000000000066e+00 9.963279999999999914e-01 -1.224704999999999933e+00 4.180000000000000230e-04 8.869999999999999846e-04 1.979999999999999881e-04 -1.455259999999999998e+00 -9.970409999999999551e-01 1.224483999999999906e+00 -1.455179000000000000e+00 -9.964340000000000419e-01 1.223402000000000100e+00 -1.455370000000000053e+00 -9.969620000000000148e-01 1.224634000000000000e+00 -1.455410000000000093e+00 -9.962339999999999529e-01 1.223348000000000102e+00 -1.455465000000000009e+00 -9.966359999999999664e-01 1.225073999999999996e+00 -1.455209999999999892e+00 -9.961600000000000454e-01 1.223105000000000109e+00 -1.455508999999999942e+00 -9.953549999999999898e-01 1.225179999999999936e+00 -1.454984999999999973e+00 -9.969120000000000203e-01 1.223041000000000045e+00 -1.455543000000000031e+00 -9.954560000000000075e-01 1.224698000000000064e+00 -1.454717000000000038e+00 -9.966040000000000454e-01 1.223568999999999907e+00 -1.455271999999999899e+00 -9.958369999999999722e-01 1.225122000000000044e+00 -1.455629000000000062e+00 -9.967000000000000304e-01 1.223443999999999976e+00 -1.454898999999999942e+00 -9.956570000000000142e-01 1.225184999999999969e+00 -1.455537999999999998e+00 -9.953779999999999850e-01 1.224361999999999950e+00 -1.455999999999999961e+00 -9.955540000000000500e-01 1.224806000000000061e+00 -1.455163999999999902e+00 -9.956120000000000525e-01 1.224097999999999908e+00 -1.455100999999999978e+00 -9.957209999999999672e-01 1.224609999999999976e+00 -1.455238000000000032e+00 -9.952750000000000208e-01 1.224266999999999994e+00 1.456498000000000070e+00 9.955260000000000220e-01 -1.227050999999999892e+00 1.455281999999999965e+00 9.969919999999999893e-01 -1.226162999999999892e+00 1.456507999999999914e+00 9.957359999999999545e-01 -1.226849999999999996e+00 1.455165000000000042e+00 9.964380000000000459e-01 -1.226099000000000050e+00 1.456086999999999909e+00 9.956420000000000270e-01 -1.226887000000000061e+00 1.456188999999999956e+00 9.968650000000000011e-01 -1.225684999999999913e+00 1.456709000000000032e+00 9.972950000000000426e-01 -1.226243999999999890e+00 1.455068999999999946e+00 9.964779999999999749e-01 -1.225548999999999999e+00 1.455580000000000096e+00 9.971719999999999473e-01 -1.226269999999999971e+00 1.455775000000000041e+00 9.969630000000000436e-01 -1.225967000000000029e+00 1.455249000000000015e+00 9.968550000000000466e-01 -1.226401000000000074e+00 1.455942999999999987e+00 9.963809999999999611e-01 -1.225850000000000106e+00 1.456223000000000045e+00 9.965220000000000189e-01 -1.226590000000000069e+00 1.455537999999999998e+00 9.982469999999999954e-01 -1.224887000000000059e+00 1.455630999999999897e+00 9.960290000000000532e-01 -1.225951000000000013e+00 1.455797000000000008e+00 9.978080000000000283e-01 -1.225058999999999898e+00 1.456110000000000015e+00 9.966749999999999776e-01 -1.226417000000000090e+00 1.456150999999999973e+00 9.981100000000000527e-01 -1.225516000000000050e+00 1.289999999999999914e-04 -1.814999999999999990e-03 7.079999999999999705e-04 -1.455926999999999971e+00 -9.958110000000000017e-01 1.224083999999999950e+00 3.460000000000000076e-04 -3.649999999999999816e-04 -1.413999999999999892e-03 -1.454585999999999935e+00 -9.975249999999999950e-01 1.222439000000000053e+00 3.750000000000000078e-04 -1.801999999999999999e-03 4.850000000000000253e-04 -1.455313999999999997e+00 -9.956549999999999567e-01 1.223624999999999963e+00 6.999999999999999929e-04 -3.240000000000000150e-04 -1.064000000000000059e-03 -1.455114000000000019e+00 -9.969799999999999773e-01 1.222712000000000021e+00 5.680000000000000370e-04 -1.837000000000000091e-03 5.940000000000000184e-04 -1.455880999999999981e+00 -9.956319999999999615e-01 1.224045999999999967e+00 4.659999999999999971e-04 -4.620000000000000083e-04 -1.628000000000000107e-03 -1.455227999999999966e+00 -9.967530000000000001e-01 1.222075999999999940e+00 1.029999999999999964e-04 4.600000000000000139e-04 1.507000000000000093e-03 -1.455737999999999976e+00 -9.951699999999999990e-01 1.224137000000000031e+00 1.054000000000000032e-03 4.099999999999999912e-04 -6.660000000000000338e-04 -1.455462000000000033e+00 -9.954800000000000315e-01 1.222928000000000015e+00 -9.500000000000000523e-05 9.280000000000000054e-04 1.286000000000000034e-03 -1.455699000000000076e+00 -9.950719999999999565e-01 1.223969000000000085e+00 8.800000000000000313e-04 2.259999999999999910e-04 -6.719999999999999628e-04 -1.455081000000000069e+00 -9.954210000000000003e-01 1.223133000000000026e+00 1.440000000000000036e-04 1.250000000000000026e-04 1.364999999999999894e-03 -1.455152000000000001e+00 -9.955049999999999732e-01 1.224236000000000102e+00 2.249999999999999938e-04 4.710000000000000102e-04 -5.159999999999999656e-04 -1.455762999999999918e+00 -9.954340000000000410e-01 1.222822000000000076e+00 3.200000000000000262e-04 -8.649999999999999920e-04 9.330000000000000186e-04 -1.454865999999999993e+00 -9.967840000000000034e-01 1.224450000000000038e+00 6.229999999999999644e-04 -1.079000000000000098e-03 -1.436999999999999909e-03 -1.455365999999999937e+00 -9.958059999999999690e-01 1.223201999999999900e+00 4.229999999999999819e-04 -1.005999999999999950e-03 4.270000000000000249e-04 -1.455548000000000064e+00 -9.966429999999999456e-01 1.223977000000000093e+00 5.289999999999999564e-04 -5.550000000000000462e-04 -1.494000000000000102e-03 -1.454809000000000019e+00 -9.961259999999999559e-01 1.223084999999999978e+00 -9.699999999999999963e-05 -9.420000000000000205e-04 8.649999999999999920e-04 -1.455141999999999936e+00 -9.968430000000000346e-01 1.224426000000000014e+00 4.310000000000000137e-04 -5.240000000000000517e-04 -1.477999999999999930e-03 -1.455235999999999974e+00 -9.958500000000000130e-01 1.223443000000000058e+00