2.474853041790251780e+02 -2.420118366000382650e+02 -2.989841716285774282e+02 -2.420118366000382650e+02 5.803834790402058275e+01 -3.352632774379282523e+02 -2.989841716285774282e+02 -3.352632774379282523e+02 5.082472909707943245e+02
2.467829327691242440e+02 -2.415098370557808494e+02 -2.982814664945934169e+02 -2.415098370557808494e+02 5.689004259581872702e+01 -3.353945880492037190e+02 -2.982814664945934169e+02 -3.353945880492037190e+02 5.077961156413063009e+02
2.457350587790993757e+02 -2.410628430927454531e+02 -2.976219491831249115e+02 -2.410628430927454531e+02 5.556325379565737421e+01 -3.354942733959008478e+02 -2.976219491831249115e+02 -3.354942733959008478e+02 5.069297090291601648e+02
2.454521392799660191e+02 -2.404656143998413427e+02 -2.967997708274003799e+02 -2.404656143998413427e+02 5.479743554831551222e+01 -3.354808851709211126e+02 -2.967997708274003799e+02 -3.354808851709211126e+02 5.067796509767471207e+02
2.451718306810120112e+02 -2.399563710798983607e+02 -2.960412945098861428e+02 -2.399563710798983607e+02 5.433563994065434599e+01 -3.354409756967510816e+02 -2.960412945098861428e+02 -3.354409756967510816e+02 5.064543092574065213e+02
2.445670048575108808e+02 -2.394306378640858668e+02 -2.952171530713198990e+02 -2.394306378640858668e+02 5.347906837354468479e+01 -3.353525191839079866e+02 -2.952171530713198990e+02 -3.353525191839079866e+02 5.057949293617370472e+02
2.447167291858407623e+02 -2.388878847200365385e+02 -2.943727133561714595e+02 -2.388878847200365385e+02 5.354114105299650817e+01 -3.351801016179290968e+02 -2.943727133561714595e+02 -3.351801016179290968e+02 5.056779688860336250e+02
2.433526810733455648e+02 -2.383174717387489068e+02 -2.934427028599570235e+02 -2.383174717387489068e+02 5.174837527872134046e+01 -3.350118457875743729e+02 -2.934427028599570235e+02 -3.350118457875743729e+02 5.042694176855191017e+02
2.444124513453906502e+02 -2.377971566315792131e+02 -2.925640466108792452e+02 -2.377971566315792131e+02 5.309161471309541724e+01 -3.346936889514340692e+02 -2.925640466108792452e+02 -3.346936889514340692e+02 5.047399882734823109e+02
2.433111618712454458e+02 -2.372118242206953198e+02 -2.915629725157983785e+02 -2.372118242206953198e+02 5.163053141573928428e+01 -3.344013662854893596e+02 -2.915629725157983785e+02 -3.344013662854893596e+02 5.033581938920989387e+02
