2.050240000000000062e+00 3.104929999999999968e+00 5.046800000000000175e+00 4.842899999999999983e-01 3.653890000000000082e+00 2.387010000000000076e+00 1.697160000000000002e+00 1.122190000000000021e+00 2.387059999999999960e+00 3.359770000000000145e+00 3.653890000000000082e+00 2.387030000000000207e+00 2.499989999999999934e+00 8.168369999999999465e+00 5.046800000000000175e+00 2.146910000000000096e+00 6.185620000000000118e+00 2.387059999999999960e+00 3.712860000000000049e+00 5.636650000000000382e+00 5.046809999999999796e+00 5.375469999999999970e+00 8.168369999999999465e+00 5.046809999999999796e+00 4.925720000000000098e+00 3.104919999999999902e+00 5.046820000000000306e+00 1.058370000000000033e+00 4.508779999999999788e+00 9.850139999999999674e+00 2.271259999999999835e+00 1.977070000000000105e+00 9.850179999999999936e+00 3.933860000000000134e+00 4.508790000000000298e+00 9.850139999999999674e+00 2.721000000000000085e+00 7.040530000000000399e+00 9.850179999999999936e+00 2.624330000000000052e+00 3.959799999999999986e+00 1.250994000000000028e+01 3.074089999999999989e+00 9.023250000000000881e+00 1.250993000000000066e+01 4.286950000000000038e+00 6.491550000000000153e+00 1.250994000000000028e+01 5.949569999999999581e+00 9.023250000000000881e+00 1.250991999999999926e+01 5.499799999999999578e+00 3.959799999999999986e+00 1.250994000000000028e+01 3.198420000000000041e+00 4.814700000000000202e+00 1.997306000000000026e+01 1.632449999999999957e+00 5.363679999999999559e+00 1.731326999999999927e+01 2.845330000000000137e+00 2.831960000000000033e+00 1.731331000000000131e+01 4.507950000000000124e+00 5.363679999999999559e+00 1.731325999999999965e+01 3.648169999999999913e+00 9.878140000000000143e+00 1.997304000000000102e+01 3.295080000000000009e+00 7.895410000000000039e+00 1.731330000000000169e+01 4.861040000000000028e+00 7.346429999999999794e+00 1.997305000000000064e+01 6.523640000000000327e+00 9.878140000000000143e+00 1.997305000000000064e+01 6.073889999999999567e+00 4.814709999999999823e+00 1.997304000000000102e+01 4.612359999999999793e+00 1.576354000000000077e+01 5.046820000000000306e+00 9.340300000000000269e-01 8.717349999999999710e+00 2.387030000000000207e+00 3.809520000000000017e+00 8.717340000000000089e+00 2.387020000000000142e+00 2.949730000000000185e+00 1.323182000000000080e+01 5.046809999999999796e+00 1.383780000000000010e+00 1.378078999999999965e+01 2.387020000000000142e+00 2.596670000000000034e+00 1.124907999999999930e+01 2.387059999999999960e+00 4.162609999999999921e+00 1.070011000000000045e+01 5.046809999999999796e+00 4.259260000000000268e+00 1.378079999999999927e+01 2.387030000000000207e+00 5.825219999999999843e+00 1.323179999999999978e+01 5.046820000000000306e+00 1.508129999999999971e+00 9.572229999999999350e+00 9.850139999999999674e+00 4.383600000000000385e+00 9.572229999999999350e+00 9.850149999999999295e+00 1.957859999999999934e+00 1.463568000000000069e+01 9.850139999999999674e+00 3.170760000000000023e+00 1.210397000000000034e+01 9.850170000000000314e+00 4.833350000000000257e+00 1.463568000000000069e+01 9.850149999999999295e+00 5.186449999999999783e+00 1.661843999999999966e+01 1.250994000000000028e+01 3.523820000000000174e+00 1.408670000000000044e+01 1.250993000000000066e+01 4.736699999999999910e+00 1.155499000000000009e+01 1.250994000000000028e+01 6.399309999999999832e+00 1.408671000000000006e+01 1.250991999999999926e+01 5.760519999999999641e+00 1.747333000000000069e+01 1.997306000000000026e+01 2.082199999999999829e+00 1.042712000000000039e+01 1.731325999999999965e+01 4.957690000000000374e+00 1.042713000000000001e+01 1.731325000000000003e+01 4.097909999999999719e+00 1.494158999999999970e+01 1.997306000000000026e+01 2.531960000000000210e+00 1.549056999999999995e+01 1.731325999999999965e+01 3.744839999999999947e+00 1.295884999999999998e+01 1.731330000000000169e+01 5.310789999999999900e+00 1.240987999999999936e+01 1.997306000000000026e+01 5.407429999999999737e+00 1.549056999999999995e+01 1.731326999999999927e+01 6.973399999999999821e+00 1.494158999999999970e+01 1.997305000000000064e+01 4.572650000000000325e+00 1.122190000000000021e+00 2.387070000000000025e+00 7.801199999999999690e+00 3.104919999999999902e+00 5.046809999999999796e+00 6.235260000000000247e+00 3.653910000000000213e+00 2.387010000000000076e+00 7.448120000000000296e+00 1.122179999999999955e+00 2.387049999999999894e+00 5.022389999999999688e+00 6.185629999999999740e+00 2.387070000000000025e+00 6.588339999999999641e+00 5.636639999999999873e+00 5.046809999999999796e+00 8.250959999999999184e+00 8.168359999999999843e+00 5.046809999999999796e+00 7.897879999999999789e+00 6.185640000000000249e+00 2.387070000000000025e+00 9.463820000000000121e+00 5.636660000000000004e+00 5.046809999999999796e+00 5.146729999999999805e+00 1.977079999999999949e+00 9.850179999999999936e+00 6.809330000000000105e+00 4.508779999999999788e+00 9.850130000000000052e+00 8.022199999999999775e+00 1.977079999999999949e+00 9.850179999999999936e+00 5.596479999999999677e+00 7.040510000000000268e+00 9.850189999999999557e+00 8.471959999999999269e+00 7.040519999999999889e+00 9.850189999999999557e+00 8.375289999999999679e+00 3.959810000000000052e+00 1.250994000000000028e+01 7.162429999999999630e+00 6.491550000000000153e+00 1.250994000000000028e+01 8.825049999999999173e+00 9.023250000000000881e+00 1.250993000000000066e+01 1.003791999999999973e+01 6.491550000000000153e+00 1.250994000000000028e+01 5.720810000000000173e+00 2.831970000000000098e+00 1.731330000000000169e+01 8.949370000000000047e+00 4.814709999999999823e+00 1.997306000000000026e+01 7.383420000000000094e+00 5.363679999999999559e+00 1.731325999999999965e+01 8.596299999999999386e+00 2.831960000000000033e+00 1.731330000000000169e+01 6.170560000000000045e+00 7.895410000000000039e+00 1.731330000000000169e+01 7.736509999999999998e+00 7.346429999999999794e+00 1.997306000000000026e+01 9.399129999999999541e+00 9.878159999999999386e+00 1.997304000000000102e+01 9.046049999999999258e+00 7.895410000000000039e+00 1.731330000000000169e+01 1.061199000000000048e+01 7.346429999999999794e+00 1.997306000000000026e+01 7.487840000000000273e+00 1.576355000000000040e+01 5.046809999999999796e+00 6.685010000000000119e+00 8.717359999999999332e+00 2.387020000000000142e+00 5.472150000000000070e+00 1.124907999999999930e+01 2.387070000000000025e+00 7.038090000000000401e+00 1.070010000000000083e+01 5.046820000000000306e+00 8.700699999999999434e+00 1.323182000000000080e+01 5.046809999999999796e+00 7.134759999999999991e+00 1.378078000000000003e+01 2.387020000000000142e+00 8.347630000000000550e+00 1.124907999999999930e+01 2.387059999999999960e+00 9.913579999999999615e+00 1.070010000000000083e+01 5.046820000000000306e+00 1.036332999999999949e+01 1.576356000000000002e+01 5.046820000000000306e+00 7.259079999999999977e+00 9.572250000000000369e+00 9.850149999999999295e+00 6.046230000000000437e+00 1.210397999999999996e+01 9.850179999999999936e+00 7.708849999999999980e+00 1.463569000000000031e+01 9.850139999999999674e+00 8.921720000000000539e+00 1.210397000000000034e+01 9.850189999999999557e+00 8.061930000000000263e+00 1.661843999999999966e+01 1.250994000000000028e+01 7.612180000000000391e+00 1.155499000000000009e+01 1.250994000000000028e+01 9.274789999999999424e+00 1.408670000000000044e+01 1.250991999999999926e+01 1.048765000000000036e+01 1.155499999999999972e+01 1.250993000000000066e+01 1.093740999999999985e+01 1.661843999999999966e+01 1.250993000000000066e+01 8.636010000000000630e+00 1.747332000000000107e+01 1.997306000000000026e+01 7.833160000000000345e+00 1.042713999999999963e+01 1.731325999999999965e+01 6.620309999999999917e+00 1.295885999999999960e+01 1.731330000000000169e+01 8.186260000000000758e+00 1.240989000000000075e+01 1.997306000000000026e+01 9.848879999999999413e+00 1.494158999999999970e+01 1.997306000000000026e+01 8.282920000000000726e+00 1.549056999999999995e+01 1.731325000000000003e+01 9.495789999999999509e+00 1.295884999999999998e+01 1.731330000000000169e+01 1.106174999999999997e+01 1.240987999999999936e+01 1.997305000000000064e+01 1.151149999999999984e+01 1.747333000000000069e+01 1.997306000000000026e+01 2.991060000000000052e+00 1.622800000000000076e-01 1.293679999999999941e+00 4.359100000000000197e-01 2.113560000000000105e+00 3.716889999999999805e+00 1.778180000000000094e+00 2.694030000000000147e+00 1.293679999999999941e+00 3.440799999999999859e+00 5.225730000000000430e+00 1.293679999999999941e+00 2.098559999999999981e+00 4.645290000000000141e+00 3.716990000000000016e+00 3.311389999999999834e+00 2.113560000000000105e+00 3.716889999999999805e+00 3.761130000000000084e+00 7.176999999999999602e+00 3.716889999999999805e+00 8.856699999999999573e-01 7.176989999999999981e+00 3.716899999999999871e+00 1.155700000000000061e-01 1.622800000000000076e-01 1.293670000000000098e+00 5.653299999999999992e-01 5.225710000000000299e+00 1.293679999999999941e+00 3.565150000000000041e+00 1.017160000000000064e+00 8.756800000000000139e+00 1.969219999999999970e+00 1.533079999999999998e+00 6.140360000000000262e+00 3.631839999999999957e+00 4.064779999999999838e+00 6.140310000000000379e+00 2.418979999999999908e+00 6.596529999999999561e+00 6.140360000000000262e+00 1.010000000000000009e+00 2.968430000000000124e+00 1.118002000000000073e+01 2.352269999999999861e+00 3.548919999999999852e+00 8.756809999999999761e+00 4.014890000000000292e+00 6.080610000000000070e+00 8.756790000000000518e+00 2.672639999999999905e+00 5.500180000000000291e+00 1.118011000000000088e+01 3.885479999999999823e+00 2.968440000000000190e+00 1.118002000000000073e+01 4.335230000000000139e+00 8.031890000000000640e+00 1.118000999999999934e+01 1.459750000000000103e+00 8.031890000000000640e+00 1.118003000000000036e+01 4.844710000000000072e+00 1.533079999999999998e+00 6.140369999999999884e+00 6.896600000000000508e-01 1.017160000000000064e+00 8.756790000000000518e+00 5.294469999999999565e+00 6.596529999999999561e+00 6.140369999999999884e+00 1.139399999999999968e+00 6.080610000000000070e+00 8.756790000000000518e+00 4.139240000000000030e+00 1.872060000000000057e+00 1.621991999999999834e+01 4.588969999999999771e+00 6.935500000000000220e+00 1.621990999999999872e+01 2.543320000000000025e+00 2.387980000000000214e+00 1.360349000000000075e+01 4.205919999999999881e+00 4.919669999999999987e+00 1.360342999999999947e+01 2.993059999999999832e+00 7.451430000000000220e+00 1.360347999999999935e+01 2.926349999999999785e+00 4.403810000000000002e+00 1.621993000000000151e+01 1.263740000000000085e+00 1.872049999999999992e+00 1.621990999999999872e+01 1.713500000000000023e+00 6.935509999999999842e+00 1.621991999999999834e+01 5.418800000000000061e+00 2.387960000000000083e+00 1.360349000000000075e+01 5.868549999999999933e+00 7.451419999999999710e+00 1.360350000000000037e+01 4.909320000000000128e+00 8.886779999999999902e+00 1.864313999999999893e+01 1.584079999999999933e+00 3.823339999999999961e+00 1.864312999999999931e+01 3.567159999999999886e+00 8.306309999999999860e+00 2.106660000000000110e+01 3.246719999999999828e+00 6.355070000000000441e+00 1.864321999999999946e+01 3.117399999999999949e+00 3.242859999999999854e+00 2.106661000000000072e+01 4.459570000000000256e+00 3.823329999999999895e+00 1.864313999999999893e+01 4.780020000000000380e+00 5.774560000000000137e+00 2.106654999999999944e+01 2.033840000000000092e+00 8.886789999999999523e+00 1.864313999999999893e+01 5.992869999999999919e+00 3.242859999999999854e+00 2.106661000000000072e+01 6.442630000000000301e+00 8.306309999999999860e+00 2.106660000000000110e+01 4.210899999999999643e+00 1.224043999999999954e+01 3.716899999999999871e+00 3.890569999999999862e+00 1.028916000000000075e+01 1.293660000000000032e+00 2.227920000000000122e+00 7.757469999999999644e+00 1.293679999999999941e+00 2.548309999999999853e+00 9.708740000000000592e+00 3.716979999999999951e+00 1.335420000000000051e+00 1.224043999999999954e+01 3.716889999999999805e+00 2.677669999999999995e+00 1.282091999999999921e+01 1.293690000000000007e+00 2.998060000000000169e+00 1.477219000000000015e+01 3.716979999999999951e+00 1.015069999999999917e+00 1.028917999999999999e+01 1.293670000000000098e+00 4.464640000000000164e+00 1.114405999999999963e+01 8.756790000000000518e+00 4.081599999999999895e+00 9.128220000000000667e+00 6.140310000000000379e+00 4.784980000000000011e+00 1.309533000000000058e+01 1.118002000000000073e+01 2.868720000000000159e+00 1.165997999999999912e+01 6.140360000000000262e+00 4.531349999999999767e+00 1.419168999999999947e+01 6.140310000000000379e+00 2.802010000000000112e+00 8.612370000000000303e+00 8.756800000000000139e+00 3.122390000000000221e+00 1.056362999999999985e+01 1.118009999999999948e+01 1.909499999999999975e+00 1.309533000000000058e+01 1.118000999999999934e+01 3.251759999999999984e+00 1.367581000000000024e+01 8.756790000000000518e+00 3.572140000000000093e+00 1.562706000000000017e+01 1.118009999999999948e+01 5.744200000000000195e+00 1.165995999999999988e+01 6.140369999999999884e+00 1.589169999999999972e+00 1.114405999999999963e+01 8.756790000000000518e+00 3.825849999999999973e+00 1.453070999999999913e+01 1.621990999999999872e+01 5.038730000000000153e+00 1.199895000000000067e+01 1.621990999999999872e+01 3.376100000000000101e+00 9.467249999999999943e+00 1.621991999999999834e+01 4.655680000000000263e+00 9.983129999999999171e+00 1.360341999999999985e+01 5.105419999999999625e+00 1.504656999999999911e+01 1.360342999999999947e+01 3.442810000000000148e+00 1.251486000000000054e+01 1.360349000000000075e+01 2.163250000000000117e+00 1.199895000000000067e+01 1.621990999999999872e+01 6.318299999999999805e+00 1.251487000000000016e+01 1.360347999999999935e+01 5.679509999999999614e+00 1.590146999999999977e+01 2.106655999999999906e+01 5.359060000000000379e+00 1.395021999999999984e+01 1.864313999999999893e+01 4.016899999999999693e+00 1.336975999999999942e+01 2.106661000000000072e+01 3.696470000000000145e+00 1.141851999999999911e+01 1.864321999999999946e+01 5.229770000000000252e+00 1.083802000000000021e+01 2.106653999999999982e+01 2.483589999999999964e+00 1.395022999999999946e+01 1.864313999999999893e+01 4.146230000000000082e+00 1.648197000000000045e+01 1.864321999999999946e+01 6.892380000000000173e+00 1.336974999999999980e+01 2.106661000000000072e+01 6.636619999999999742e+00 7.176989999999999981e+00 3.716899999999999871e+00 5.866530000000000022e+00 1.622699999999999976e-01 1.293679999999999941e+00 6.316279999999999895e+00 5.225710000000000299e+00 1.293670000000000098e+00 4.974029999999999951e+00 4.645290000000000141e+00 3.716990000000000016e+00 6.186869999999999870e+00 2.113560000000000105e+00 3.716899999999999871e+00 7.529149999999999565e+00 2.694030000000000147e+00 1.293679999999999941e+00 7.849510000000000431e+00 4.645290000000000141e+00 3.716990000000000016e+00 4.653660000000000352e+00 2.694030000000000147e+00 1.293670000000000098e+00 6.440620000000000012e+00 1.017169999999999908e+00 8.756790000000000518e+00 6.507319999999999993e+00 4.064779999999999838e+00 6.140299999999999869e+00 7.720189999999999664e+00 1.533090000000000064e+00 6.140360000000000262e+00 7.210720000000000240e+00 8.031890000000000640e+00 1.118003000000000036e+01 8.169940000000000424e+00 6.596529999999999561e+00 6.140360000000000262e+00 6.890369999999999884e+00 6.080610000000000070e+00 8.756790000000000518e+00 5.548110000000000319e+00 5.500180000000000291e+00 1.118011000000000088e+01 6.760970000000000368e+00 2.968440000000000190e+00 1.118003000000000036e+01 8.103229999999999933e+00 3.548919999999999852e+00 8.756800000000000139e+00 8.423600000000000421e+00 5.500180000000000291e+00 1.118009999999999948e+01 9.382799999999999585e+00 4.064790000000000347e+00 6.140320000000000000e+00 5.227739999999999831e+00 3.548919999999999852e+00 8.756800000000000139e+00 8.677300000000000679e+00 4.403810000000000002e+00 1.621991999999999834e+01 7.014700000000000379e+00 1.872060000000000057e+00 1.621991999999999834e+01 7.464470000000000383e+00 6.935509999999999842e+00 1.621989999999999910e+01 7.081419999999999604e+00 4.919669999999999987e+00 1.360344000000000086e+01 8.294269999999999143e+00 2.387960000000000083e+00 1.360349000000000075e+01 8.744020000000000792e+00 7.451419999999999710e+00 1.360349000000000075e+01 9.956889999999999574e+00 4.919669999999999987e+00 1.360341999999999985e+01 5.801829999999999821e+00 4.403810000000000002e+00 1.621991999999999834e+01 9.318120000000000402e+00 8.306309999999999860e+00 2.106660000000000110e+01 7.784799999999999720e+00 8.886789999999999523e+00 1.864313999999999893e+01 6.122209999999999930e+00 6.355059999999999931e+00 1.864322999999999908e+01 8.868349999999999511e+00 3.242869999999999919e+00 2.106660000000000110e+01 7.335040000000000227e+00 3.823329999999999895e+00 1.864312999999999931e+01 7.655490000000000350e+00 5.774569999999999759e+00 2.106654999999999944e+01 8.997690000000000410e+00 6.355059999999999931e+00 1.864321999999999946e+01 1.053096999999999994e+01 5.774560000000000137e+00 2.106653999999999982e+01 8.428649999999999309e+00 1.282093000000000060e+01 1.293670000000000098e+00 8.749019999999999797e+00 1.477216999999999913e+01 3.716990000000000016e+00 5.423779999999999824e+00 9.708740000000000592e+00 3.716990000000000016e+00 7.978889999999999816e+00 7.757480000000000153e+00 1.293670000000000098e+00 8.299269999999999925e+00 9.708740000000000592e+00 3.716979999999999951e+00 6.766040000000000276e+00 1.028917000000000037e+01 1.293660000000000032e+00 5.873540000000000205e+00 1.477218000000000053e+01 3.716990000000000016e+00 7.086369999999999614e+00 1.224044999999999916e+01 3.716889999999999805e+00 5.103399999999999714e+00 7.757469999999999644e+00 1.293670000000000098e+00 5.553160000000000096e+00 1.282090999999999958e+01 1.293679999999999941e+00 6.957069999999999865e+00 9.128230000000000288e+00 6.140310000000000379e+00 9.002739999999999299e+00 1.367581000000000024e+01 8.756800000000000139e+00 7.406819999999999737e+00 1.419167999999999985e+01 6.140310000000000379e+00 8.619690000000000296e+00 1.165996999999999950e+01 6.140369999999999884e+00 9.323109999999999786e+00 1.562707999999999942e+01 1.118011000000000088e+01 5.997860000000000191e+00 1.056362999999999985e+01 1.118011000000000088e+01 8.552979999999999805e+00 8.612370000000000303e+00 8.756790000000000518e+00 8.873350000000000293e+00 1.056362000000000023e+01 1.118009999999999948e+01 7.340130000000000265e+00 1.114405000000000001e+01 8.756790000000000518e+00 6.447619999999999685e+00 1.562707999999999942e+01 1.118011000000000088e+01 7.660459999999999603e+00 1.309534999999999982e+01 1.118002000000000073e+01 9.832560000000000855e+00 9.128230000000000288e+00 6.140299999999999869e+00 5.677500000000000213e+00 8.612360000000000682e+00 8.756790000000000518e+00 1.028231000000000073e+01 1.419167000000000023e+01 6.140299999999999869e+00 6.127250000000000085e+00 1.367581000000000024e+01 8.756790000000000518e+00 9.576800000000000423e+00 1.453070999999999913e+01 1.621990999999999872e+01 7.531159999999999854e+00 9.983119999999999550e+00 1.360342999999999947e+01 9.127060000000000173e+00 9.467249999999999943e+00 1.621991999999999834e+01 7.980920000000000236e+00 1.504655999999999949e+01 1.360342999999999947e+01 9.193780000000000285e+00 1.251487000000000016e+01 1.360349000000000075e+01 7.914209999999999745e+00 1.199896000000000029e+01 1.621989999999999910e+01 6.251570000000000071e+00 9.467249999999999943e+00 1.621990999999999872e+01 6.701340000000000074e+00 1.453069999999999951e+01 1.621993000000000151e+01 1.040665000000000084e+01 9.983119999999999550e+00 1.360342999999999947e+01 1.085638999999999932e+01 1.504656999999999911e+01 1.360341999999999985e+01 9.767870000000000275e+00 1.336974999999999980e+01 2.106660000000000110e+01 6.571950000000000180e+00 1.141851999999999911e+01 1.864322999999999908e+01 8.105259999999999465e+00 1.083801000000000059e+01 2.106653999999999982e+01 9.447440000000000282e+00 1.141851999999999911e+01 1.864322999999999908e+01 7.021700000000000053e+00 1.648197000000000045e+01 1.864322999999999908e+01 9.897180000000000533e+00 1.648196000000000083e+01 1.864321999999999946e+01 8.234550000000000480e+00 1.395022999999999946e+01 1.864312999999999931e+01 8.554999999999999716e+00 1.590145000000000053e+01 2.106653999999999982e+01 1.098072999999999944e+01 1.083801000000000059e+01 2.106654999999999944e+01 1.143046999999999969e+01 1.590146000000000015e+01 2.106654999999999944e+01