-2.744963017670000227e+03
-2.744892042339999989e+03
-2.744752892779999911e+03
-2.744547351100000014e+03
-2.744277878750000127e+03
-2.743947655989999930e+03
-2.743560678670000016e+03
-2.743121505449999859e+03
-2.742635203849999925e+03
-2.742107358329999897e+03
