2.718639999999999946e-01 7.491100000000000536e-02 -6.827950000000000408e-01 -2.722330000000000028e-01 -7.556899999999999729e-02 6.850500000000000478e-01 -2.710910000000000264e-01 -7.651600000000000068e-02 6.836830000000000407e-01 -2.719179999999999930e-01 -7.546500000000000430e-02 6.845409999999999551e-01 2.707019999999999982e-01 7.544800000000000118e-02 -6.831880000000000175e-01 -2.728209999999999802e-01 -7.513599999999999446e-02 6.849969999999999670e-01 2.705400000000000027e-01 7.544700000000000017e-02 -6.821530000000000094e-01 2.706680000000000197e-01 7.541100000000000581e-02 -6.832770000000000232e-01 2.720960000000000045e-01 7.507700000000000484e-02 -6.831559999999999855e-01 -2.721109999999999918e-01 -7.540099999999999580e-02 6.848570000000000491e-01 -2.713670000000000249e-01 -7.611600000000000310e-02 6.837419999999999609e-01 -2.722450000000000148e-01 -7.546799999999999342e-02 6.849790000000000045e-01 -2.729159999999999919e-01 -7.561700000000000366e-02 6.848889999999999700e-01 2.720799999999999885e-01 7.522700000000000220e-02 -6.830699999999999550e-01 2.704989999999999895e-01 7.566000000000000503e-02 -6.833780000000000410e-01 2.706660000000000177e-01 7.514200000000000046e-02 -6.823110000000000008e-01 2.703630000000000200e-01 7.556599999999999429e-02 -6.831770000000000342e-01 2.721709999999999963e-01 7.523499999999999632e-02 -6.828140000000000320e-01 2.718169999999999753e-01 7.525500000000000245e-02 -6.827140000000000430e-01 -2.717579999999999996e-01 -7.570499999999999452e-02 6.837210000000000232e-01 -2.710560000000000191e-01 -7.589600000000000513e-02 6.828030000000000488e-01 -2.722040000000000015e-01 -7.558199999999999641e-02 6.839469999999999716e-01 2.705339999999999967e-01 7.557700000000000529e-02 -6.827539999999999720e-01 -2.726589999999999847e-01 -7.567799999999999527e-02 6.842489999999999961e-01 2.704489999999999950e-01 7.535000000000000031e-02 -6.820709999999999829e-01 2.706330000000000124e-01 7.553300000000000292e-02 -6.828239999999999865e-01 2.721370000000000178e-01 7.459200000000000552e-02 -6.823789999999999578e-01 2.704860000000000042e-01 7.611199999999999910e-02 -6.832949999999999857e-01 -2.713630000000000209e-01 -7.609200000000000685e-02 6.844040000000000123e-01 -2.716700000000000226e-01 -7.594499999999999862e-02 6.845240000000000213e-01 2.711169999999999969e-01 7.484100000000000474e-02 -6.828650000000000553e-01 -2.731060000000000154e-01 -7.512199999999999434e-02 6.855780000000000207e-01 -2.716189999999999993e-01 -7.615099999999999647e-02 6.836809999999999832e-01 2.718450000000000033e-01 7.487800000000000011e-02 -6.827100000000000390e-01 -2.730199999999999849e-01 -7.535699999999999343e-02 6.854390000000000205e-01 2.709900000000000087e-01 7.487800000000000011e-02 -6.826780000000000070e-01 -2.717089999999999783e-01 -7.607800000000000673e-02 6.846389999999999976e-01 -2.714340000000000086e-01 -7.611999999999999322e-02 6.843599999999999683e-01 -2.730440000000000089e-01 -7.520100000000000395e-02 6.856449999999999489e-01 -2.717570000000000263e-01 -7.617599999999999372e-02 6.840270000000000516e-01 -2.731210000000000027e-01 -7.534899999999999931e-02 6.854599999999999582e-01 2.703550000000000120e-01 7.578200000000000214e-02 -6.829769999999999452e-01 2.708929999999999949e-01 7.494000000000000661e-02 -6.826590000000000158e-01 2.717490000000000183e-01 7.541100000000000581e-02 -6.830699999999999550e-01 2.706740000000000257e-01 7.492799999999999461e-02 -6.824540000000000051e-01 2.705310000000000215e-01 7.575199999999999989e-02 -6.827560000000000295e-01 -2.715650000000000008e-01 -7.600600000000000411e-02 6.843190000000000106e-01 -2.717019999999999991e-01 -7.615800000000000347e-02 6.844209999999999461e-01 2.710159999999999791e-01 7.500199999999999922e-02 -6.823339999999999961e-01 -2.730650000000000022e-01 -7.492899999999999561e-02 6.852019999999999778e-01 -2.716839999999999811e-01 -7.552399999999999392e-02 6.834930000000000172e-01 2.715730000000000088e-01 7.550400000000000167e-02 -6.822089999999999543e-01 -2.729509999999999992e-01 -7.500700000000000423e-02 6.850979999999999848e-01 2.704989999999999895e-01 7.481999999999999762e-02 -6.817680000000000407e-01 -2.711029999999999829e-01 -7.637599999999999945e-02 6.834729999999999972e-01 2.721799999999999775e-01 7.511700000000000321e-02 -6.831519999999999815e-01 -2.721589999999999843e-01 -7.602799999999999836e-02 6.849859999999999838e-01 -2.712640000000000051e-01 -7.640900000000000469e-02 6.837900000000000089e-01 -2.726919999999999900e-01 -7.514300000000000146e-02 6.846269999999999856e-01 2.706500000000000017e-01 7.571400000000000352e-02 -6.824879999999999836e-01 2.705759999999999832e-01 7.561299999999999966e-02 -6.833310000000000217e-01 -2.728079999999999949e-01 -7.543500000000000205e-02 6.846780000000000088e-01 2.706359999999999877e-01 7.529900000000000482e-02 -6.822460000000000191e-01 -2.712479999999999891e-01 -7.634900000000000020e-02 6.838370000000000282e-01 -2.719940000000000135e-01 -7.558600000000000041e-02 6.849480000000000013e-01 -2.710620000000000251e-01 -7.638499999999999457e-02 6.836969999999999992e-01 -2.728229999999999822e-01 -7.521999999999999520e-02 6.846889999999999921e-01 -2.726219999999999755e-01 -7.521100000000000008e-02 6.845729999999999871e-01 2.720529999999999893e-01 7.489999999999999436e-02 -6.829070000000000418e-01 2.706000000000000072e-01 7.506300000000000472e-02 -6.823040000000000216e-01 2.705190000000000095e-01 7.561299999999999966e-02 -6.833219999999999850e-01 2.706089999999999884e-01 7.512900000000000134e-02 -6.824230000000000018e-01 -2.709869999999999779e-01 -7.645200000000000606e-02 6.831589999999999607e-01 2.719679999999999875e-01 7.490800000000000236e-02 -6.826699999999999990e-01 -2.720279999999999920e-01 -7.590700000000000225e-02 6.840920000000000334e-01 -2.713169999999999749e-01 -7.618900000000000672e-02 6.831230000000000357e-01 -2.727069999999999772e-01 -7.566699999999999815e-02 6.842249999999999721e-01 2.706020000000000092e-01 7.533399999999999819e-02 -6.822099999999999831e-01 2.706109999999999904e-01 7.518199999999999883e-02 -6.826740000000000030e-01 -2.727919999999999789e-01 -7.576299999999999701e-02 6.844459999999999988e-01 2.708130000000000259e-01 7.535799999999999443e-02 -6.822200000000000486e-01 2.706120000000000192e-01 7.550199999999999967e-02 -6.829849999999999532e-01 -2.717379999999999796e-01 -7.616699999999999859e-02 6.845360000000000333e-01 -2.715940000000000021e-01 -7.619399999999999784e-02 6.836919999999999664e-01 2.718900000000000206e-01 7.526499999999999857e-02 -6.829859999999999820e-01 2.710319999999999951e-01 7.463799999999999601e-02 -6.825139999999999540e-01 -2.733280000000000154e-01 -7.497399999999999898e-02 6.854320000000000412e-01 -2.716830000000000078e-01 -7.592300000000000437e-02 6.836090000000000222e-01 2.717709999999999848e-01 7.519000000000000683e-02 -6.829140000000000210e-01 2.703849999999999865e-01 7.556699999999999529e-02 -6.831270000000000397e-01 -2.713659999999999961e-01 -7.659199999999999342e-02 6.843879999999999963e-01 -2.716589999999999838e-01 -7.640299999999999869e-02 6.838819999999999899e-01 -2.733380000000000254e-01 -7.527499999999999469e-02 6.856499999999999817e-01 -2.715899999999999981e-01 -7.598299999999999499e-02 6.836229999999999807e-01 2.705460000000000087e-01 7.559599999999999653e-02 -6.830089999999999772e-01 2.716149999999999953e-01 7.555499999999999716e-02 -6.830789999999999917e-01 2.708209999999999784e-01 7.495999999999999885e-02 -6.825329999999999453e-01 2.718860000000000166e-01 7.517699999999999383e-02 -6.828910000000000258e-01 2.705000000000000182e-01 7.569700000000000040e-02 -6.827849999999999753e-01 2.702860000000000262e-01 7.600099999999999911e-02 -6.826689999999999703e-01 -2.715069999999999983e-01 -7.620799999999999796e-02 6.841669999999999696e-01 -2.716069999999999873e-01 -7.595100000000000462e-02 6.836929999999999952e-01 2.718180000000000041e-01 7.521400000000000308e-02 -6.823360000000000536e-01 2.709019999999999762e-01 7.484200000000000574e-02 -6.822949999999999848e-01 -2.731770000000000032e-01 -7.487000000000000599e-02 6.854350000000000165e-01 -2.714829999999999743e-01 -7.563400000000000678e-02 6.835020000000000540e-01 2.718070000000000208e-01 7.533600000000000019e-02 -6.822899999999999521e-01 2.701540000000000052e-01 7.600700000000000511e-02 -6.825329999999999453e-01 1.295269000000000004e+00 1.291209000000000051e+00 -1.312688999999999995e+00 1.910000000000000077e-04 -9.929999999999999591e-04 2.249999999999999830e-03 1.296389000000000014e+00 1.289825999999999917e+00 -1.313708000000000098e+00 1.295522999999999980e+00 1.290248000000000062e+00 -1.313706999999999958e+00 1.610000000000000103e-04 -1.041999999999999958e-03 -9.629999999999999888e-04 1.440000000000000036e-04 -1.069999999999999988e-03 2.405000000000000020e-03 3.600000000000000227e-04 -8.580000000000000387e-04 1.124999999999999915e-03 7.100000000000000462e-05 -7.360000000000000006e-04 9.709999999999999664e-04 1.295590999999999937e+00 1.291139000000000037e+00 -1.312602000000000046e+00 1.295177000000000023e+00 1.290664999999999951e+00 -1.313889000000000085e+00 1.295091999999999910e+00 1.290640999999999927e+00 -1.315766999999999909e+00 -1.294939000000000062e+00 -1.289015999999999940e+00 1.311522000000000077e+00 -1.294702000000000019e+00 -1.289698999999999929e+00 1.312202000000000091e+00 -1.294357999999999898e+00 -1.290240999999999971e+00 1.310545000000000071e+00 8.000000000000000654e-05 -1.231000000000000106e-03 2.539999999999999940e-04 1.295849999999999946e+00 1.288378000000000023e+00 -1.315704999999999902e+00 1.294940999999999898e+00 1.289568999999999965e+00 -1.315248999999999890e+00 4.459999999999999989e-04 -1.330000000000000019e-03 -2.416999999999999878e-03 2.439999999999999949e-04 -1.312999999999999931e-03 4.659999999999999971e-04 1.029999999999999964e-04 -1.119999999999999983e-04 1.487999999999999956e-03 3.690000000000000246e-04 -2.099999999999999884e-05 1.057999999999999913e-03 -1.295102999999999893e+00 -1.289188999999999918e+00 1.311563999999999952e+00 1.295090000000000074e+00 1.290899000000000019e+00 -1.315571999999999964e+00 -1.294777000000000067e+00 -1.290089000000000041e+00 1.310577000000000103e+00 1.294918999999999931e+00 1.289435000000000109e+00 -1.315110000000000001e+00 1.295044000000000084e+00 1.289889999999999981e+00 -1.315064000000000011e+00 1.294877999999999973e+00 1.291071000000000080e+00 -1.314279999999999893e+00 -1.294847999999999999e+00 -1.290313000000000043e+00 1.312821999999999933e+00 -1.294253000000000098e+00 -1.289525000000000032e+00 1.314057999999999948e+00 -1.294483000000000050e+00 -1.288415000000000088e+00 1.313002999999999920e+00 1.295711000000000057e+00 1.288793000000000077e+00 -1.314770999999999912e+00 1.295096000000000025e+00 1.289760000000000018e+00 -1.315177000000000040e+00 1.294618000000000047e+00 1.290994999999999893e+00 -1.314583999999999975e+00 -1.294831000000000065e+00 -1.289722999999999953e+00 1.312931000000000070e+00 -1.294629000000000030e+00 -1.288394000000000039e+00 1.312969000000000053e+00 9.000000000000000228e-06 1.119999999999999983e-04 2.239000000000000105e-03 2.829999999999999942e-04 -1.288000000000000082e-03 2.886999999999999809e-03 -1.295279999999999987e+00 -1.289466000000000001e+00 1.311385999999999941e+00 3.170000000000000075e-04 -1.420000000000000092e-04 4.169999999999999987e-04 -1.295978999999999992e+00 -1.288901999999999992e+00 1.311938999999999966e+00 4.600000000000000004e-05 -8.729999999999999696e-04 2.769000000000000194e-03 -1.295595000000000052e+00 -1.288651999999999909e+00 1.313323000000000018e+00 1.879999999999999890e-04 -9.999999999999999547e-07 2.173000000000000018e-03 -1.295485999999999915e+00 -1.288502000000000036e+00 1.311644999999999950e+00 -1.295425000000000049e+00 -1.289441000000000059e+00 1.311445999999999890e+00 -1.250000000000000026e-04 5.000000000000000409e-06 1.518000000000000035e-03 1.295911000000000035e+00 1.290472999999999981e+00 -1.313153999999999932e+00 1.296094000000000079e+00 1.289290000000000047e+00 -1.314387999999999890e+00 3.040000000000000167e-04 -2.400000000000000061e-04 -7.829999999999999504e-04 -1.789999999999999870e-04 -1.379999999999999933e-04 1.480999999999999895e-03 1.295655000000000001e+00 1.290060999999999902e+00 -1.313784999999999981e+00 2.400000000000000061e-05 3.240000000000000150e-04 5.820000000000000520e-04 1.296106999999999898e+00 1.290437000000000056e+00 -1.313342999999999927e+00 1.295757000000000048e+00 1.291433999999999971e+00 -1.314464999999999995e+00 -1.295360999999999985e+00 -1.288137000000000087e+00 1.311952000000000007e+00 7.499999999999999343e-05 1.010000000000000020e-04 5.410000000000000312e-04 -1.294507999999999992e+00 -1.288127999999999940e+00 1.311129999999999907e+00 -1.295066999999999968e+00 -1.288259000000000043e+00 1.312361000000000111e+00 1.295525000000000038e+00 1.289303000000000088e+00 -1.315450000000000008e+00 4.119999999999999856e-04 3.490000000000000263e-04 -4.339999999999999782e-04 1.289999999999999914e-04 3.800000000000000209e-05 8.149999999999999693e-04 1.295447999999999933e+00 1.290608999999999895e+00 -1.315749000000000057e+00 2.640000000000000202e-04 6.000000000000000152e-06 -1.048000000000000103e-03 -1.294556999999999958e+00 -1.287952999999999903e+00 1.310864000000000029e+00 1.295242000000000004e+00 1.291639999999999899e+00 -1.314281999999999950e+00 1.295158999999999949e+00 1.288898000000000099e+00 -1.315911000000000053e+00 1.295401999999999942e+00 1.290707000000000049e+00 -1.315314000000000094e+00 1.295234999999999914e+00 1.290354000000000001e+00 -1.315706999999999960e+00 -1.295168000000000097e+00 -1.287892000000000037e+00 1.314545999999999992e+00 -1.294594000000000023e+00 -1.289638000000000062e+00 1.313719000000000081e+00 -1.294715000000000060e+00 -1.288459999999999939e+00 1.313187000000000104e+00 1.295398999999999967e+00 1.290710999999999942e+00 -1.315366999999999953e+00 -1.294556000000000040e+00 -1.288653000000000048e+00 1.313134000000000023e+00 -1.295535000000000103e+00 -1.289139000000000035e+00 1.312143999999999977e+00 6.899999999999999667e-05 -9.460000000000000093e-04 1.054999999999999948e-03 -1.295163000000000064e+00 -1.289557000000000064e+00 1.311099999999999932e+00 5.119999999999999768e-04 -6.549999999999999833e-04 -2.669999999999999847e-04 -1.295900000000000052e+00 -1.289392000000000094e+00 1.312461000000000100e+00 -2.699999999999999899e-05 -1.085000000000000027e-03 1.021999999999999905e-03 2.090000000000000115e-04 -6.880000000000000265e-04 5.199999999999999544e-04 -1.295182000000000055e+00 -1.289131000000000027e+00 1.311053000000000024e+00 2.180000000000000134e-04 -5.299999999999999807e-04 9.940000000000000918e-04 1.295805000000000096e+00 1.291390000000000038e+00 -1.312543999999999933e+00 1.295514999999999972e+00 1.290737000000000023e+00 -1.313652000000000042e+00 3.919999999999999873e-04 -1.157000000000000042e-03 -1.157999999999999958e-03 3.330000000000000169e-04 -7.450000000000000025e-04 1.830999999999999945e-03 1.296183000000000085e+00 1.289824000000000082e+00 -1.313517000000000046e+00 6.729999999999999871e-04 -1.193000000000000050e-03 -1.229000000000000058e-03 1.296297000000000033e+00 1.289819000000000049e+00 -1.313355000000000050e+00 1.295315999999999912e+00 1.290685000000000082e+00 -1.315498999999999974e+00 -1.294823000000000057e+00 -1.289876999999999940e+00 1.312483000000000066e+00 -1.295001999999999986e+00 -1.289388999999999896e+00 1.311617999999999951e+00 1.150000000000000035e-04 -7.200000000000000182e-05 1.031000000000000015e-03 -1.294551999999999925e+00 -1.290273000000000003e+00 1.310572999999999988e+00 1.294877999999999973e+00 1.289528999999999925e+00 -1.315304999999999946e+00 5.289999999999999564e-04 -1.471000000000000085e-03 -2.126999999999999984e-03 8.799999999999999771e-05 -1.244000000000000097e-03 3.789999999999999966e-04 1.295736999999999917e+00 1.288356999999999974e+00 -1.315622999999999987e+00 2.509999999999999753e-04 -1.466999999999999988e-03 -1.995999999999999944e-03 -1.294570999999999916e+00 -1.289863999999999900e+00 1.311860000000000026e+00 1.296167999999999987e+00 1.288529999999999953e+00 -1.315831999999999891e+00 1.295660999999999952e+00 1.288958999999999966e+00 -1.315099000000000018e+00 1.295109000000000066e+00 1.290008999999999961e+00 -1.315236999999999989e+00 1.294515000000000082e+00 1.290960000000000107e+00 -1.314572000000000074e+00 -1.294858999999999982e+00 -1.289477999999999902e+00 1.314019000000000048e+00 -1.294990000000000085e+00 -1.289976000000000012e+00 1.312788999999999984e+00 -1.294586999999999932e+00 -1.288418999999999981e+00 1.313201000000000063e+00 -1.294799000000000033e+00 -1.289431999999999912e+00 1.314103000000000021e+00 1.295889999999999986e+00 1.289041000000000103e+00 -1.315099000000000018e+00 -1.295469999999999899e+00 -1.289293000000000022e+00 1.311450999999999922e+00 3.699999999999999811e-05 9.600000000000000243e-05 2.147000000000000037e-03 1.810000000000000085e-04 2.249999999999999938e-04 -1.150000000000000035e-04 -1.295231000000000021e+00 -1.288993999999999973e+00 1.311935999999999991e+00 -3.000000000000000076e-06 -9.349999999999999587e-04 2.668999999999999932e-03 -1.295517999999999947e+00 -1.288880999999999943e+00 1.313358999999999943e+00 -3.699999999999999811e-05 3.579999999999999741e-04 2.020000000000000040e-04 -1.295326999999999895e+00 -1.288864000000000010e+00 1.313431999999999933e+00 1.295890999999999904e+00 1.289863999999999900e+00 -1.313587999999999978e+00 2.369999999999999874e-04 6.440000000000000412e-04 1.859999999999999945e-04 4.960000000000000216e-04 -2.979999999999999793e-04 -1.015999999999999976e-03 1.295973000000000042e+00 1.289176000000000100e+00 -1.314167000000000085e+00 2.339999999999999958e-04 -3.089999999999999756e-04 -6.840000000000000377e-04 1.296110000000000095e+00 1.290327000000000002e+00 -1.313136000000000081e+00 1.450000000000000009e-04 4.859999999999999954e-04 4.539999999999999765e-04 1.019999999999999992e-04 -4.360000000000000269e-04 1.760999999999999979e-03 1.296022999999999925e+00 1.289021999999999890e+00 -1.314184999999999937e+00 1.295674999999999910e+00 1.290091000000000099e+00 -1.313411000000000106e+00 -1.295285000000000020e+00 -1.288334000000000090e+00 1.311987999999999932e+00 1.295093000000000050e+00 1.290634000000000059e+00 -1.315784999999999982e+00 -1.294643999999999906e+00 -1.288129999999999997e+00 1.312232999999999983e+00 -1.294664000000000037e+00 -1.287863999999999898e+00 1.310716999999999910e+00 3.150000000000000131e-04 4.100000000000000047e-05 -1.213000000000000102e-03 4.939999999999999730e-04 4.369999999999999970e-04 -8.249999999999999955e-04 1.294993000000000061e+00 1.289312999999999931e+00 -1.315080999999999944e+00 4.889999999999999599e-04 4.319999999999999838e-04 -3.060000000000000111e-04 1.295242999999999922e+00 1.291639999999999899e+00 -1.314316000000000040e+00 4.979999999999999618e-04 -1.000000000000000048e-04 -1.111999999999999924e-03 3.130000000000000187e-04 -1.579999999999999916e-04 6.560000000000000076e-04 -1.295307999999999904e+00 -1.288334000000000090e+00 1.312017999999999907e+00 1.295301000000000036e+00 1.289458999999999911e+00 -1.315361000000000002e+00 -1.294956999999999914e+00 -1.287938000000000027e+00 1.312426000000000093e+00 1.295104000000000033e+00 1.290721999999999925e+00 -1.315625999999999962e+00 1.295552999999999955e+00 1.288915999999999951e+00 -1.316041000000000016e+00 -1.295052000000000092e+00 -1.287779999999999925e+00 1.314643000000000006e+00 1.295153999999999916e+00 1.290383000000000058e+00 -1.315628999999999937e+00 -1.294707999999999970e+00 -1.289258999999999933e+00 1.313549999999999995e+00 -1.294369000000000103e+00 -1.288634999999999975e+00 1.313158000000000047e+00 1.295420000000000016e+00 1.290572999999999970e+00 -1.314993999999999996e+00 1.295287999999999995e+00 1.290292999999999912e+00 -1.315352999999999994e+00 1.295018000000000002e+00 1.289352000000000054e+00 -1.316063999999999901e+00 -1.295258999999999938e+00 -1.287720999999999894e+00 1.314413999999999971e+00 -1.294877999999999973e+00 -1.289616000000000096e+00 1.313674000000000008e+00 -1.295217000000000063e+00 -1.289379000000000053e+00 1.311296999999999935e+00 3.029999999999999924e-04 -5.109999999999999525e-04 -4.889999999999999599e-04 -1.296027000000000040e+00 -1.289093999999999962e+00 1.312438999999999911e+00 3.139999999999999888e-04 -3.469999999999999777e-04 -4.060000000000000024e-04 3.350000000000000113e-04 -3.710000000000000190e-04 -1.190000000000000058e-04 3.539999999999999853e-04 -2.930000000000000204e-04 7.600000000000000418e-05 2.500000000000000120e-05 -1.245999999999999929e-03 1.270000000000000078e-03 -1.295287999999999995e+00 -1.288844000000000101e+00 1.312405000000000044e+00 -1.295665000000000067e+00 -1.289103000000000110e+00 1.312279999999999891e+00 -1.295447999999999933e+00 -1.288615999999999984e+00 1.312457999999999902e+00