1.768899999999999917e+00 2.839010000000000034e+00 2.678409999999999958e+00 1.254850000000000021e+00 9.486900000000000333e-01 2.121859999999999857e+00 2.537999999999999812e+00 3.067820000000000213e+00 2.121849999999999792e+00 1.144570000000000087e+00 4.958149999999999835e+00 2.678380000000000205e+00 1.913659999999999917e+00 5.186960000000000015e+00 2.121849999999999792e+00 3.052039999999999864e+00 4.958149999999999835e+00 2.678380000000000205e+00 3.821110000000000007e+00 5.186960000000000015e+00 2.121849999999999792e+00 3.162310000000000176e+00 9.486900000000000333e-01 2.121849999999999792e+00 4.857600000000000251e-01 7.198799999999999644e-01 2.678389999999999826e+00 2.393219999999999903e+00 7.198999999999999844e-01 2.678389999999999826e+00 1.934479999999999977e+00 1.914719999999999978e+00 6.940970000000000084e+00 3.217600000000000016e+00 4.033859999999999779e+00 6.940949999999999953e+00 2.593269999999999964e+00 6.152989999999999959e+00 6.940959999999999575e+00 3.841930000000000067e+00 1.914730000000000043e+00 6.940970000000000084e+00 4.500740000000000407e+00 6.152989999999999959e+00 6.940979999999999706e+00 2.448519999999999808e+00 3.805060000000000109e+00 7.497510000000000119e+00 1.824189999999999978e+00 5.924199999999999910e+00 7.497510000000000119e+00 3.731650000000000134e+00 5.924190000000000289e+00 7.497499999999999609e+00 1.165389999999999926e+00 1.685929999999999929e+00 7.497489999999999988e+00 3.072859999999999925e+00 1.685929999999999929e+00 7.497510000000000119e+00 3.128140000000000143e+00 4.771099999999999675e+00 1.231662999999999997e+01 2.614090000000000025e+00 2.880770000000000053e+00 1.176008000000000031e+01 3.897219999999999906e+00 4.999909999999999854e+00 1.176007000000000069e+01 2.503820000000000157e+00 6.890229999999999855e+00 1.231662999999999997e+01 5.180349999999999788e+00 7.119040000000000035e+00 1.176008000000000031e+01 3.272899999999999920e+00 7.119030000000000413e+00 1.176008999999999993e+01 4.411260000000000403e+00 6.890249999999999986e+00 1.231662000000000035e+01 4.521550000000000402e+00 2.880770000000000053e+00 1.176008999999999993e+01 1.845010000000000039e+00 2.651969999999999938e+00 1.231662000000000035e+01 3.752470000000000194e+00 2.651969999999999938e+00 1.231661000000000072e+01 4.479910000000000281e+00 9.425209999999999866e+00 2.121859999999999857e+00 3.196790000000000020e+00 7.306090000000000195e+00 2.121840000000000170e+00 1.803379999999999983e+00 9.196429999999999438e+00 2.678380000000000205e+00 3.086489999999999956e+00 1.131555000000000000e+01 2.678409999999999958e+00 2.572459999999999969e+00 9.425219999999999487e+00 2.121849999999999792e+00 3.710830000000000073e+00 9.196419999999999817e+00 2.678380000000000205e+00 3.855589999999999851e+00 1.154437000000000069e+01 2.121830000000000105e+00 2.427690000000000126e+00 7.077280000000000015e+00 2.678389999999999826e+00 3.876409999999999911e+00 8.272130000000000649e+00 6.940949999999999953e+00 3.252079999999999860e+00 1.039124999999999943e+01 6.940970000000000084e+00 4.535199999999999676e+00 1.251041000000000025e+01 6.940949999999999953e+00 5.159530000000000172e+00 1.039126000000000083e+01 6.940979999999999706e+00 2.482990000000000030e+00 1.016245999999999938e+01 7.497499999999999609e+00 3.766119999999999912e+00 1.228157999999999994e+01 7.497519999999999740e+00 4.390450000000000408e+00 1.016247000000000078e+01 7.497499999999999609e+00 3.107299999999999951e+00 8.043329999999999202e+00 7.497519999999999740e+00 5.839140000000000441e+00 1.135730000000000040e+01 1.176008000000000031e+01 4.556020000000000181e+00 9.238170000000000215e+00 1.176005999999999929e+01 3.162619999999999987e+00 1.112851000000000035e+01 1.231662999999999997e+01 4.445719999999999672e+00 1.324764000000000053e+01 1.231662999999999997e+01 3.931680000000000064e+00 1.135730000000000040e+01 1.176008999999999993e+01 5.070059999999999789e+00 1.112851000000000035e+01 1.231662000000000035e+01 5.214830000000000076e+00 1.347644000000000020e+01 1.176007000000000069e+01 3.786939999999999973e+00 9.009370000000000545e+00 1.231663999999999959e+01 3.676359999999999850e+00 2.839010000000000034e+00 2.678389999999999826e+00 5.583809999999999718e+00 2.839010000000000034e+00 2.678399999999999892e+00 4.445439999999999614e+00 3.067829999999999835e+00 2.121840000000000170e+00 5.069770000000000110e+00 9.486799999999999677e-01 2.121859999999999857e+00 4.959489999999999732e+00 4.958140000000000214e+00 2.678380000000000205e+00 6.352909999999999613e+00 3.067829999999999835e+00 2.121840000000000170e+00 5.728580000000000005e+00 5.186950000000000394e+00 2.121859999999999857e+00 4.300690000000000346e+00 7.198900000000000299e-01 2.678380000000000205e+00 5.125060000000000393e+00 4.033870000000000289e+00 6.940959999999999575e+00 5.749399999999999622e+00 1.914730000000000043e+00 6.940959999999999575e+00 6.408190000000000275e+00 6.152989999999999959e+00 6.940970000000000084e+00 7.032519999999999882e+00 4.033859999999999779e+00 6.940949999999999953e+00 4.355959999999999610e+00 3.805060000000000109e+00 7.497519999999999740e+00 6.263440000000000119e+00 3.805050000000000043e+00 7.497519999999999740e+00 5.639109999999999623e+00 5.924190000000000289e+00 7.497510000000000119e+00 4.980299999999999727e+00 1.685929999999999929e+00 7.497510000000000119e+00 5.035599999999999632e+00 4.771090000000000053e+00 1.231663999999999959e+01 6.943050000000000388e+00 4.771090000000000053e+00 1.231663999999999959e+01 5.804669999999999774e+00 4.999909999999999854e+00 1.176007000000000069e+01 6.429000000000000270e+00 2.880759999999999987e+00 1.176008000000000031e+01 7.712150000000000283e+00 4.999920000000000364e+00 1.176007000000000069e+01 6.318730000000000402e+00 6.890240000000000364e+00 1.231661000000000072e+01 7.087810000000000166e+00 7.119030000000000413e+00 1.176008000000000031e+01 5.659919999999999618e+00 2.651959999999999873e+00 1.231662000000000035e+01 5.104239999999999888e+00 7.306090000000000195e+00 2.121840000000000170e+00 4.993949999999999889e+00 1.131554000000000038e+01 2.678389999999999826e+00 5.618290000000000006e+00 9.196419999999999817e+00 2.678380000000000205e+00 6.901410000000000267e+00 1.131554000000000038e+01 2.678399999999999892e+00 5.763040000000000163e+00 1.154434999999999967e+01 2.121840000000000170e+00 6.387369999999999770e+00 9.425209999999999866e+00 2.121859999999999857e+00 7.670490000000000030e+00 1.154434999999999967e+01 2.121840000000000170e+00 7.011689999999999756e+00 7.306090000000000195e+00 2.121830000000000105e+00 4.335149999999999615e+00 7.077280000000000015e+00 2.678409999999999958e+00 6.242600000000000371e+00 7.077280000000000015e+00 2.678399999999999892e+00 5.783870000000000289e+00 8.272130000000000649e+00 6.940959999999999575e+00 6.442669999999999675e+00 1.251038999999999923e+01 6.940959999999999575e+00 7.066989999999999661e+00 1.039126000000000083e+01 6.940970000000000084e+00 7.691329999999999778e+00 8.272130000000000649e+00 6.940949999999999953e+00 8.350120000000000431e+00 1.251038999999999923e+01 6.940949999999999953e+00 5.673569999999999780e+00 1.228158999999999956e+01 7.497519999999999740e+00 6.297900000000000276e+00 1.016247000000000078e+01 7.497510000000000119e+00 7.581019999999999648e+00 1.228158999999999956e+01 7.497510000000000119e+00 5.014770000000000394e+00 8.043309999999999960e+00 7.497519999999999740e+00 6.922220000000000262e+00 8.043309999999999960e+00 7.497519999999999740e+00 9.029730000000000700e+00 1.347643000000000058e+01 1.176008000000000031e+01 6.463479999999999670e+00 9.238170000000000215e+00 1.176007000000000069e+01 6.353180000000000049e+00 1.324761999999999951e+01 1.231662999999999997e+01 6.977520000000000167e+00 1.112851000000000035e+01 1.231662999999999997e+01 8.260640000000000427e+00 1.324761999999999951e+01 1.231663999999999959e+01 7.122270000000000323e+00 1.347644999999999982e+01 1.176007000000000069e+01 7.746599999999999930e+00 1.135731000000000002e+01 1.176008000000000031e+01 8.370939999999999159e+00 9.238179999999999836e+00 1.176008000000000031e+01 5.694390000000000285e+00 9.009359999999999147e+00 1.231662999999999997e+01 7.601849999999999774e+00 9.009359999999999147e+00 1.231662000000000035e+01 2.635310000000000041e+00 4.348770000000000024e+00 6.557199999999999696e-01 3.259640000000000093e+00 2.229639999999999844e+00 6.557600000000000096e-01 5.581399999999999695e-01 1.893860000000000099e+00 2.400100000000000122e+00 1.352179999999999938e+00 2.229639999999999844e+00 6.557500000000000551e-01 3.124400000000000066e+00 6.132139999999999702e+00 2.400110000000000188e+00 1.841290000000000093e+00 4.012990000000000279e+00 2.400160000000000071e+00 2.465599999999999792e+00 1.893869999999999942e+00 2.400100000000000122e+00 1.216939999999999911e+00 6.132119999999999571e+00 2.400090000000000057e+00 3.918429999999999858e+00 6.467909999999999826e+00 6.557500000000000551e-01 2.010969999999999924e+00 6.467909999999999826e+00 6.557600000000000096e-01 3.314929999999999932e+00 5.314820000000000100e+00 5.474840000000000373e+00 1.047269999999999923e+00 3.677200000000000024e+00 4.144519999999999982e+00 1.671599999999999975e+00 1.558049999999999935e+00 4.144560000000000244e+00 2.954730000000000079e+00 3.677189999999999959e+00 4.144529999999999603e+00 2.330389999999999961e+00 5.796330000000000204e+00 4.144549999999999734e+00 1.237749999999999906e+00 2.859910000000000174e+00 7.219219999999999970e+00 2.031789999999999985e+00 3.195679999999999854e+00 5.474859999999999616e+00 3.804009999999999891e+00 7.098169999999999646e+00 7.219210000000000349e+00 2.520890000000000075e+00 4.979029999999999845e+00 7.219269999999999854e+00 3.145210000000000061e+00 2.859900000000000109e+00 7.219219999999999970e+00 3.939249999999999918e+00 3.195689999999999920e+00 5.474870000000000125e+00 1.896560000000000024e+00 7.098180000000000156e+00 7.219219999999999970e+00 2.690599999999999881e+00 7.433950000000000280e+00 5.474870000000000125e+00 4.598049999999999748e+00 7.433950000000000280e+00 5.474870000000000125e+00 4.618870000000000253e+00 4.161719999999999864e+00 1.029396999999999984e+01 1.726890000000000036e+00 4.643220000000000347e+00 8.963639999999999830e+00 2.351220000000000088e+00 2.524090000000000167e+00 8.963680000000000092e+00 3.634339999999999904e+00 4.643220000000000347e+00 8.963639999999999830e+00 3.010019999999999918e+00 6.762369999999999770e+00 8.963670000000000471e+00 2.711419999999999941e+00 4.161719999999999864e+00 1.029399000000000086e+01 3.994540000000000202e+00 6.280859999999999665e+00 1.029395000000000060e+01 5.277669999999999639e+00 8.399990000000000734e+00 1.029397999999999946e+01 3.370210000000000150e+00 8.399990000000000734e+00 1.029397999999999946e+01 4.483620000000000161e+00 8.064209999999999212e+00 1.203833000000000020e+01 1.917370000000000019e+00 3.825950000000000184e+00 1.203833999999999982e+01 2.406499999999999861e+00 5.609270000000000422e+00 1.378275999999999968e+01 3.200520000000000032e+00 5.945070000000000299e+00 1.203838000000000008e+01 3.030839999999999979e+00 3.490139999999999798e+00 1.378278000000000070e+01 3.824840000000000018e+00 3.825950000000000184e+00 1.203833000000000020e+01 4.313959999999999795e+00 5.609270000000000422e+00 1.378275000000000006e+01 2.576169999999999849e+00 8.064209999999999212e+00 1.203832000000000058e+01 3.689630000000000187e+00 7.728399999999999714e+00 1.378279000000000032e+01 4.577230000000000132e+00 1.070617999999999981e+01 6.557500000000000551e-01 3.294119999999999937e+00 8.587040000000000006e+00 6.557199999999999696e-01 3.783189999999999831e+00 1.037040999999999968e+01 2.400100000000000122e+00 3.158869999999999845e+00 1.248950999999999922e+01 2.400150000000000006e+00 2.500080000000000080e+00 8.251260000000000261e+00 2.400160000000000071e+00 1.875729999999999897e+00 1.037040999999999968e+01 2.400100000000000122e+00 2.669770000000000199e+00 1.070617999999999981e+01 6.557600000000000096e-01 3.952900000000000080e+00 1.282530999999999999e+01 6.557199999999999696e-01 3.973739999999999828e+00 9.553079999999999572e+00 5.474840000000000373e+00 4.462799999999999656e+00 1.133644999999999925e+01 7.219219999999999970e+00 1.706059999999999910e+00 7.915460000000000385e+00 4.144529999999999603e+00 3.613510000000000222e+00 7.915460000000000385e+00 4.144519999999999982e+00 2.364860000000000184e+00 1.215372999999999948e+01 4.144529999999999603e+00 2.989180000000000170e+00 1.003458999999999968e+01 4.144569999999999865e+00 4.272310000000000052e+00 1.215372999999999948e+01 4.144529999999999603e+00 5.256859999999999644e+00 1.167221999999999937e+01 5.474859999999999616e+00 3.179679999999999840e+00 9.217290000000000205e+00 7.219269999999999854e+00 2.555359999999999854e+00 1.133643999999999963e+01 7.219210000000000349e+00 3.349400000000000155e+00 1.167220999999999975e+01 5.474870000000000125e+00 3.838480000000000114e+00 1.345556000000000019e+01 7.219269999999999854e+00 4.632520000000000415e+00 1.379134999999999955e+01 5.474840000000000373e+00 5.936469999999999914e+00 1.263826000000000072e+01 1.029397999999999946e+01 4.653349999999999653e+00 1.051911999999999914e+01 1.029396000000000022e+01 2.385670000000000179e+00 8.881500000000000838e+00 8.963649999999999451e+00 4.293129999999999669e+00 8.881489999999999441e+00 8.963649999999999451e+00 3.044480000000000075e+00 1.311977000000000082e+01 8.963639999999999830e+00 3.668820000000000192e+00 1.100061999999999962e+01 8.963670000000000471e+00 4.951939999999999564e+00 1.311975999999999942e+01 8.963639999999999830e+00 4.029020000000000046e+00 1.263824999999999932e+01 1.029399000000000086e+01 5.312140000000000306e+00 1.475737999999999950e+01 1.029396000000000022e+01 4.348419999999999952e+00 1.196668000000000021e+01 1.378279000000000032e+01 5.631560000000000343e+00 1.408581000000000039e+01 1.378275999999999968e+01 5.142430000000000057e+00 1.230246999999999957e+01 1.203833999999999982e+01 3.065300000000000136e+00 9.847530000000000783e+00 1.378275999999999968e+01 3.859309999999999796e+00 1.018333999999999939e+01 1.203838000000000008e+01 4.972760000000000069e+00 9.847550000000000026e+00 1.378275000000000006e+01 3.234960000000000058e+00 1.230247999999999919e+01 1.203833000000000020e+01 3.724089999999999900e+00 1.408580000000000076e+01 1.378275000000000006e+01 4.518110000000000070e+00 1.442159999999999975e+01 1.203838000000000008e+01 4.542769999999999975e+00 4.348770000000000024e+00 6.557199999999999696e-01 6.450230000000000352e+00 4.348760000000000403e+00 6.557199999999999696e-01 5.031839999999999868e+00 6.132139999999999702e+00 2.400100000000000122e+00 5.656179999999999986e+00 4.012990000000000279e+00 2.400160000000000071e+00 3.748740000000000183e+00 4.012990000000000279e+00 2.400160000000000071e+00 4.373050000000000104e+00 1.893869999999999942e+00 2.400100000000000122e+00 5.167080000000000339e+00 2.229639999999999844e+00 6.557500000000000551e-01 5.825890000000000235e+00 6.467920000000000336e+00 6.557500000000000551e-01 5.222400000000000375e+00 5.314809999999999590e+00 5.474840000000000373e+00 5.711459999999999759e+00 7.098160000000000025e+00 7.219210000000000349e+00 3.579060000000000130e+00 1.558049999999999935e+00 4.144549999999999734e+00 4.862180000000000391e+00 3.677179999999999893e+00 4.144529999999999603e+00 5.486500000000000377e+00 1.558060000000000000e+00 4.144560000000000244e+00 4.237849999999999895e+00 5.796330000000000204e+00 4.144560000000000244e+00 6.145310000000000272e+00 5.796319999999999695e+00 4.144560000000000244e+00 6.335820000000000007e+00 4.979020000000000223e+00 7.219269999999999854e+00 4.428359999999999630e+00 4.979029999999999845e+00 7.219280000000000364e+00 5.052679999999999616e+00 2.859910000000000174e+00 7.219219999999999970e+00 5.846720000000000361e+00 3.195679999999999854e+00 5.474870000000000125e+00 7.129850000000000243e+00 5.314809999999999590e+00 5.474840000000000373e+00 6.505510000000000126e+00 7.433950000000000280e+00 5.474870000000000125e+00 7.809459999999999624e+00 6.280859999999999665e+00 1.029396000000000022e+01 6.526329999999999742e+00 4.161730000000000373e+00 1.029397999999999946e+01 4.258670000000000400e+00 2.524090000000000167e+00 8.963670000000000471e+00 5.541809999999999903e+00 4.643229999999999968e+00 8.963639999999999830e+00 6.166140000000000398e+00 2.524109999999999854e+00 8.963680000000000092e+00 4.917469999999999786e+00 6.762369999999999770e+00 8.963670000000000471e+00 6.824939999999999785e+00 6.762360000000000149e+00 8.963670000000000471e+00 5.902000000000000135e+00 6.280840000000000423e+00 1.029396000000000022e+01 7.185120000000000395e+00 8.400000000000000355e+00 1.029397999999999946e+01 7.504540000000000433e+00 7.728399999999999714e+00 1.378278000000000070e+01 6.391079999999999650e+00 8.064220000000000610e+00 1.203833000000000020e+01 5.597080000000000055e+00 7.728399999999999714e+00 1.378279000000000032e+01 5.107960000000000278e+00 5.945079999999999920e+00 1.203838999999999970e+01 4.938299999999999912e+00 3.490130000000000177e+00 1.378278000000000070e+01 5.732289999999999885e+00 3.825940000000000119e+00 1.203833000000000020e+01 6.221429999999999794e+00 5.609270000000000422e+00 1.378275000000000006e+01 7.015419999999999767e+00 5.945070000000000299e+00 1.203838999999999970e+01 6.845760000000000289e+00 3.490149999999999864e+00 1.378279999999999994e+01 7.109029999999999738e+00 8.587040000000000006e+00 6.557199999999999696e-01 6.973790000000000155e+00 1.248950999999999922e+01 2.400170000000000137e+00 5.201559999999999739e+00 8.587040000000000006e+00 6.557199999999999696e-01 4.407530000000000392e+00 8.251250000000000639e+00 2.400160000000000071e+00 6.314989999999999881e+00 8.251250000000000639e+00 2.400170000000000137e+00 6.484700000000000131e+00 1.070617999999999981e+01 6.557500000000000551e-01 5.066329999999999778e+00 1.248950999999999922e+01 2.400150000000000006e+00 5.690649999999999764e+00 1.037039000000000044e+01 2.400090000000000057e+00 7.767830000000000013e+00 1.282530000000000037e+01 6.557199999999999696e-01 5.860369999999999635e+00 1.282530000000000037e+01 6.557300000000000351e-01 7.653410000000000046e+00 1.345556999999999981e+01 7.219280000000000364e+00 5.520990000000000286e+00 7.915449999999999875e+00 4.144519999999999982e+00 4.896639999999999660e+00 1.003458000000000006e+01 4.144560000000000244e+00 6.179770000000000429e+00 1.215371999999999986e+01 4.144529999999999603e+00 6.804109999999999658e+00 1.003458000000000006e+01 4.144569999999999865e+00 5.881179999999999630e+00 9.553089999999999193e+00 5.474840000000000373e+00 5.087150000000000283e+00 9.217299999999999827e+00 7.219280000000000364e+00 7.788640000000000008e+00 9.553069999999999951e+00 5.474840000000000373e+00 6.994600000000000151e+00 9.217299999999999827e+00 7.219269999999999854e+00 7.164320000000000022e+00 1.167223000000000077e+01 5.474859999999999616e+00 5.745949999999999669e+00 1.345556999999999981e+01 7.219280000000000364e+00 6.370269999999999655e+00 1.133644999999999925e+01 7.219219999999999970e+00 6.539979999999999905e+00 1.379134999999999955e+01 5.474849999999999994e+00 8.447449999999999903e+00 1.379134999999999955e+01 5.474849999999999994e+00 8.468270000000000408e+00 1.051911999999999914e+01 1.029396000000000022e+01 6.200599999999999667e+00 8.881489999999999441e+00 8.963630000000000209e+00 5.576260000000000439e+00 1.100062999999999924e+01 8.963680000000000092e+00 6.859399999999999942e+00 1.311977000000000082e+01 8.963649999999999451e+00 7.483719999999999928e+00 1.100064000000000064e+01 8.963670000000000471e+00 6.560810000000000031e+00 1.051910999999999952e+01 1.029395000000000060e+01 7.843919999999999781e+00 1.263824999999999932e+01 1.029397999999999946e+01 9.127050000000000551e+00 1.475737999999999950e+01 1.029396000000000022e+01 7.219610000000000305e+00 1.475738999999999912e+01 1.029396000000000022e+01 8.163339999999999819e+00 1.196668000000000021e+01 1.378278000000000070e+01 5.766770000000000174e+00 1.018333999999999939e+01 1.203838999999999970e+01 6.880219999999999558e+00 9.847540000000000404e+00 1.378276999999999930e+01 7.674220000000000041e+00 1.018333999999999939e+01 1.203838000000000008e+01 6.425580000000000069e+00 1.442160999999999937e+01 1.203838000000000008e+01 6.255889999999999951e+00 1.196667000000000058e+01 1.378278000000000070e+01 7.049879999999999924e+00 1.230249000000000059e+01 1.203833000000000020e+01 7.539010000000000211e+00 1.408582000000000001e+01 1.378275000000000006e+01 8.333030000000000825e+00 1.442159999999999975e+01 1.203838000000000008e+01