3.392202180079999835e+03
3.355283864250000079e+03
3.246521332599999823e+03
3.096979877780000152e+03
2.941410109469999952e+03
2.802715834780000023e+03
2.688946604639999805e+03
2.599141489780000029e+03
2.529137702200000149e+03
2.474055582460000096e+03
