-5.272592600000000118e+01 -1.626145599999999902e+01 5.581773100000000198e+01 5.273084800000000172e+01 1.626116700000000037e+01 -5.581877699999999720e+01 5.272194999999999965e+01 1.627039900000000117e+01 -5.581729700000000349e+01 -5.273233700000000113e+01 -1.626116800000000140e+01 5.582000200000000234e+01 5.273132999999999981e+01 1.626294400000000095e+01 -5.582078700000000282e+01 -5.273354899999999645e+01 -1.625979999999999848e+01 5.582047699999999679e+01 5.273036700000000110e+01 1.626475599999999844e+01 -5.582191600000000165e+01 5.272944999999999993e+01 1.626236000000000104e+01 -5.581982299999999952e+01 -5.272997999999999763e+01 -1.626205399999999912e+01 5.582099999999999795e+01 -5.273087100000000049e+01 -1.626300300000000121e+01 5.581983600000000223e+01 5.273046000000000078e+01 1.626693799999999968e+01 -5.581940199999999663e+01 5.272583699999999851e+01 1.626851299999999867e+01 -5.582029399999999697e+01 5.272770599999999774e+01 1.626520700000000019e+01 -5.582008100000000184e+01 5.273064699999999760e+01 1.626601499999999945e+01 -5.582154200000000088e+01 5.273001000000000005e+01 1.626344200000000129e+01 -5.581987300000000118e+01 -5.272836300000000165e+01 -1.626322000000000045e+01 5.582016099999999881e+01 -5.273064800000000218e+01 -1.625922900000000126e+01 5.582017400000000151e+01 -5.273310099999999778e+01 -1.626063399999999959e+01 5.582050199999999762e+01 -5.273241900000000015e+01 -1.626068799999999825e+01 5.582189799999999735e+01 -5.273386200000000201e+01 -1.626213399999999965e+01 5.582307800000000242e+01 -5.272733600000000109e+01 -1.626319799999999915e+01 5.582098899999999730e+01 5.272852600000000223e+01 1.626483599999999896e+01 -5.581942899999999952e+01 5.272557199999999966e+01 1.626696899999999957e+01 -5.581916400000000067e+01 -5.273277300000000167e+01 -1.626156800000000047e+01 5.582236400000000032e+01 5.272762000000000171e+01 1.626275800000000160e+01 -5.581820400000000149e+01 5.272808799999999962e+01 1.626602700000000112e+01 -5.581996000000000180e+01 -5.272765900000000272e+01 -1.626172400000000096e+01 5.582074800000000181e+01 5.273255799999999738e+01 1.626752099999999857e+01 -5.582140299999999655e+01 -5.273061299999999818e+01 -1.626120900000000091e+01 5.582180999999999926e+01 -5.273585599999999829e+01 -1.626236499999999907e+01 5.582268400000000241e+01 5.273147999999999769e+01 1.626582099999999897e+01 -5.582077699999999965e+01 5.272350899999999996e+01 1.626872600000000091e+01 -5.581775400000000076e+01 -5.273315199999999692e+01 -1.626286699999999996e+01 5.582039699999999982e+01 -5.272248700000000099e+01 -1.626383699999999877e+01 5.581820900000000307e+01 5.272938899999999762e+01 1.626572699999999827e+01 -5.582010400000000061e+01 -5.273360399999999970e+01 -1.626064200000000071e+01 5.582186200000000298e+01 5.272055100000000039e+01 1.626557400000000086e+01 -5.581674100000000038e+01 -5.272660900000000339e+01 -1.626194999999999879e+01 5.581672799999999768e+01 5.271938600000000008e+01 1.626663500000000084e+01 -5.581367900000000049e+01 5.272997399999999857e+01 1.626338900000000010e+01 -5.582014699999999863e+01 5.272421700000000300e+01 1.626716499999999854e+01 -5.581773299999999693e+01 5.273268000000000200e+01 1.626920000000000144e+01 -5.582213800000000248e+01 -5.273272999999999655e+01 -1.625944399999999845e+01 5.582126600000000138e+01 -5.272554099999999977e+01 -1.625908499999999890e+01 5.582004899999999736e+01 -5.273649999999999949e+01 -1.626222200000000129e+01 5.582247499999999718e+01 -5.271910700000000105e+01 -1.626408999999999949e+01 5.581641900000000334e+01 5.273133399999999682e+01 1.626470399999999827e+01 -5.582067299999999932e+01 5.272221100000000149e+01 1.626736100000000107e+01 -5.581755400000000122e+01 -5.273525300000000016e+01 -1.626254399999999833e+01 5.582512100000000288e+01 -5.272362300000000346e+01 -1.626522299999999888e+01 5.581703100000000006e+01 5.273130900000000310e+01 1.626757999999999882e+01 -5.582222800000000262e+01 -5.273208400000000040e+01 -1.626326999999999856e+01 5.582241299999999740e+01 5.272190400000000210e+01 1.626381399999999999e+01 -5.581508500000000339e+01 -5.272573400000000277e+01 -1.626206900000000033e+01 5.582017400000000151e+01 -5.272941800000000256e+01 -1.626088999999999984e+01 5.582026199999999960e+01 -5.272093799999999675e+01 -1.626369599999999949e+01 5.581478500000000054e+01 5.272649700000000195e+01 1.626713499999999968e+01 -5.582022500000000065e+01 5.273111000000000104e+01 1.626547499999999857e+01 -5.582135399999999947e+01 -5.273468199999999939e+01 -1.625717799999999968e+01 5.582097000000000264e+01 5.272006799999999771e+01 1.626492400000000060e+01 -5.581447000000000003e+01 5.273023100000000341e+01 1.626744700000000066e+01 -5.582023099999999971e+01 -5.273453399999999647e+01 -1.626255799999999851e+01 5.582115900000000153e+01 5.272420199999999824e+01 1.626515799999999956e+01 -5.581784199999999885e+01 5.272469300000000203e+01 1.626310499999999948e+01 -5.581808000000000192e+01 5.273161100000000090e+01 1.626606200000000158e+01 -5.582092099999999846e+01 5.272389600000000343e+01 1.626705199999999962e+01 -5.581998999999999711e+01 -5.272552100000000053e+01 -1.626583099999999860e+01 5.581741099999999989e+01 -5.272713799999999651e+01 -1.626063800000000015e+01 5.582001400000000046e+01 -5.273165600000000097e+01 -1.626259299999999897e+01 5.582244899999999888e+01 -5.272759899999999789e+01 -1.626000499999999960e+01 5.581886800000000193e+01 -5.272648099999999971e+01 -1.626098700000000008e+01 5.582053700000000163e+01 -5.272280200000000150e+01 -1.625894200000000112e+01 5.581618900000000139e+01 5.272421400000000347e+01 1.626829299999999989e+01 -5.581810600000000022e+01 5.273093000000000075e+01 1.626670899999999875e+01 -5.582103099999999785e+01 5.271899200000000008e+01 1.626719599999999843e+01 -5.581393700000000280e+01 -5.273461799999999755e+01 -1.626058599999999998e+01 5.582273699999999650e+01 5.273046000000000078e+01 1.626762499999999889e+01 -5.582042200000000065e+01 -5.273182500000000061e+01 -1.626182800000000128e+01 5.582296900000000051e+01 5.272244799999999998e+01 1.626669499999999857e+01 -5.581840400000000102e+01 -5.272641200000000339e+01 -1.626436299999999946e+01 5.581956000000000273e+01 -5.273577300000000179e+01 -1.626273000000000124e+01 5.582306100000000271e+01 -5.272961200000000304e+01 -1.626205500000000015e+01 5.582073599999999658e+01 5.272604100000000216e+01 1.626657399999999853e+01 -5.581799399999999878e+01 5.273456999999999795e+01 1.626359400000000122e+01 -5.582222699999999804e+01 5.272563900000000103e+01 1.626811299999999960e+01 -5.582021499999999747e+01 5.272376400000000274e+01 1.626745500000000177e+01 -5.581826800000000333e+01 -5.272463799999999878e+01 -1.626232500000000059e+01 5.581889199999999818e+01 -5.272412899999999780e+01 -1.626689899999999867e+01 5.581785299999999950e+01 5.272026900000000182e+01 1.626671999999999940e+01 -5.581497699999999895e+01 5.272256000000000142e+01 1.627114100000000008e+01 -5.581719300000000317e+01 5.272593299999999772e+01 1.626411900000000088e+01 -5.581685999999999837e+01 5.271755900000000139e+01 1.626713900000000024e+01 -5.581482700000000108e+01 5.272003300000000081e+01 1.626881500000000003e+01 -5.581618999999999886e+01 -5.272732299999999839e+01 -1.626040400000000119e+01 5.581874700000000189e+01 -5.272801799999999872e+01 -1.625822499999999948e+01 5.581844699999999904e+01 -5.272289599999999865e+01 -1.626137900000000158e+01 5.581652700000000067e+01 -5.272410200000000202e+01 -1.625903900000000135e+01 5.581691299999999956e+01 -5.272180199999999672e+01 -1.626131300000000124e+01 5.581511900000000281e+01 5.272553299999999865e+01 1.626647099999999924e+01 -5.581796200000000141e+01 5.272432100000000332e+01 1.626811400000000063e+01 -5.581775999999999982e+01 -5.272688999999999737e+01 -1.625996699999999962e+01 5.581841899999999868e+01 -5.272897499999999837e+01 -1.626125599999999949e+01 5.582074899999999928e+01 -5.272778100000000023e+01 -1.626127500000000126e+01 5.582034699999999816e+01 5.272526700000000233e+01 1.626588800000000035e+01 -5.581701300000000288e+01 5.272747999999999990e+01 1.626329700000000145e+01 -5.581785299999999950e+01 5.272474799999999817e+01 1.626618699999999862e+01 -5.581575399999999831e+01 -5.272716700000000145e+01 -1.626210299999999975e+01 5.582058200000000170e+01 -5.272722100000000012e+01 -1.626297399999999982e+01 5.581923700000000110e+01 2.232158999999999782e+00 -4.567524999999999835e+00 6.942836999999999925e+00 2.231816999999999940e+00 -4.564826000000000050e+00 6.932225999999999999e+00 -1.364999999999999894e-03 1.689999999999999879e-04 -1.639999999999999965e-03 2.232397000000000187e+00 -4.565296000000000021e+00 6.933798999999999602e+00 5.019999999999999506e-04 -9.062999999999999876e-03 7.010000000000000172e-04 4.342000000000000373e-03 -3.762999999999999852e-03 1.593999999999999931e-03 -1.100000000000000039e-04 -1.027400000000000015e-02 -1.209999999999999921e-03 -2.116999999999999958e-03 -1.423999999999999919e-03 -3.950000000000000061e-04 2.232333000000000123e+00 -4.564206000000000429e+00 6.934847999999999679e+00 2.234046000000000198e+00 -4.563854000000000077e+00 6.933478000000000030e+00 2.233121000000000134e+00 -4.566398999999999653e+00 6.939576999999999884e+00 -2.233607999999999816e+00 4.563957000000000264e+00 -6.933654999999999902e+00 -2.234434999999999949e+00 4.566436000000000384e+00 -6.942751000000000339e+00 -2.233029000000000153e+00 4.564471000000000167e+00 -6.935306999999999888e+00 -2.232641000000000098e+00 4.566437999999999775e+00 -6.940432999999999630e+00 4.318999999999999923e-03 -8.850999999999999493e-03 4.920000000000000328e-04 2.232690999999999981e+00 -4.564460000000000406e+00 6.934584000000000081e+00 -2.046000000000000076e-03 -4.675000000000000336e-03 2.169999999999999891e-04 2.546000000000000086e-03 -1.899999999999999996e-03 4.876000000000000126e-03 8.189999999999999581e-04 -5.172999999999999647e-03 2.300000000000000070e-04 2.233553000000000122e+00 -4.564365999999999701e+00 6.933320000000000149e+00 7.519999999999999558e-04 -9.355000000000000468e-03 -1.930000000000000021e-04 2.231996999999999787e+00 -4.564902000000000015e+00 6.933180000000000121e+00 2.233299999999999841e+00 -4.564174999999999649e+00 6.931370000000000253e+00 2.232499999999999929e+00 -4.564237999999999573e+00 6.932873999999999981e+00 -2.232651999999999859e+00 4.564093999999999873e+00 -6.932387000000000299e+00 -2.233083999999999847e+00 4.566671000000000369e+00 -6.941669000000000089e+00 -2.233470000000000066e+00 4.564160000000000217e+00 -6.932281999999999833e+00 -2.233125999999999944e+00 4.565254999999999619e+00 -6.940337000000000423e+00 2.232451999999999881e+00 -4.563511000000000095e+00 6.931554000000000215e+00 2.231758999999999826e+00 -4.567216000000000165e+00 6.939797000000000438e+00 2.232559000000000182e+00 -4.565743000000000329e+00 6.932023000000000046e+00 2.232636999999999983e+00 -4.565883999999999610e+00 6.933036000000000421e+00 1.516999999999999902e-03 -4.159000000000000370e-03 -1.845999999999999985e-03 2.442000000000000160e-03 -9.586000000000000770e-03 -1.389999999999999905e-04 -2.232591999999999910e+00 4.563119000000000369e+00 -6.935622000000000398e+00 1.245999999999999929e-03 -3.477000000000000056e-03 3.560999999999999929e-03 -2.233140999999999821e+00 4.564904000000000295e+00 -6.940951000000000093e+00 6.849999999999999535e-04 -7.433999999999999636e-03 -2.139999999999999975e-04 -2.232247000000000092e+00 4.563366000000000255e+00 -6.935317999999999650e+00 2.919999999999999961e-04 -4.565999999999999746e-03 -3.237999999999999993e-03 -2.232628000000000057e+00 4.566609999999999836e+00 -6.943525000000000169e+00 2.233423000000000158e+00 -4.564630000000000187e+00 6.933297999999999739e+00 2.232040000000000024e+00 -4.566118999999999595e+00 6.941920999999999786e+00 1.515000000000000071e-03 -8.772000000000000283e-03 -1.688999999999999963e-03 1.946999999999999946e-03 3.534999999999999948e-03 1.092000000000000089e-03 5.550000000000000462e-04 -6.780000000000000002e-04 3.785000000000000170e-03 3.478999999999999888e-03 -1.222900000000000029e-02 -1.781999999999999947e-03 2.232831000000000010e+00 -4.564053000000000360e+00 6.932291000000000203e+00 2.232463999999999782e+00 -4.567383999999999666e+00 6.940900000000000070e+00 2.231488999999999834e+00 -4.567211000000000354e+00 6.940248999999999668e+00 5.237000000000000335e-03 -9.051999999999999283e-03 -1.288000000000000082e-03 -2.232698000000000071e+00 4.564789000000000208e+00 -6.936500999999999806e+00 -2.232301999999999786e+00 4.564689000000000441e+00 -6.935283000000000087e+00 -2.233127999999999780e+00 4.564449999999999896e+00 -6.935954999999999870e+00 -2.232139999999999791e+00 4.566042000000000378e+00 -6.943238000000000021e+00 -2.233363000000000209e+00 4.564106999999999914e+00 -6.937090000000000423e+00 2.232133999999999840e+00 -4.565311000000000341e+00 6.934268999999999572e+00 4.865999999999999666e-03 -1.670999999999999959e-03 2.243000000000000202e-03 -2.599999999999999772e-04 -7.903999999999999568e-03 1.190000000000000058e-04 2.232569999999999943e+00 -4.565021999999999913e+00 6.932449000000000083e+00 2.382000000000000003e-03 -2.350999999999999791e-03 5.656999999999999702e-03 2.233426000000000133e+00 -4.566150999999999627e+00 6.940388999999999697e+00 2.232577000000000034e+00 -4.564231999999999623e+00 6.934717000000000020e+00 2.231780999999999793e+00 -4.566931000000000296e+00 6.941111000000000253e+00 -2.232508000000000159e+00 4.562796999999999770e+00 -6.934772999999999854e+00 -2.232686999999999866e+00 4.562802999999999720e+00 -6.935156000000000098e+00 -2.232404999999999973e+00 4.564966000000000079e+00 -6.934478999999999616e+00 -2.233702000000000076e+00 4.566537000000000290e+00 -6.941258999999999624e+00 -2.233760000000000190e+00 4.564923000000000286e+00 -6.935071999999999903e+00 2.231851999999999947e+00 -4.563595000000000290e+00 6.933660999999999852e+00 2.233175999999999828e+00 -4.565985999999999656e+00 6.939297999999999966e+00 -2.232676999999999801e+00 4.567794000000000132e+00 -6.943647999999999598e+00 -2.234204000000000079e+00 4.563222999999999807e+00 -6.934391999999999889e+00 -2.054999999999999969e-03 1.739000000000000094e-03 1.191000000000000001e-03 -2.232623999999999942e+00 4.565822999999999965e+00 -6.937632999999999939e+00 2.488999999999999893e-03 -5.093999999999999570e-03 4.375999999999999682e-03 -2.233909999999999840e+00 4.564776000000000167e+00 -6.935181000000000040e+00 1.876000000000000063e-03 -4.899999999999999842e-03 -6.560000000000000076e-04 -2.232139999999999791e+00 4.563577000000000439e+00 -6.934522000000000297e+00 9.449999999999999850e-04 1.657000000000000053e-03 5.023999999999999820e-03 2.232213999999999920e+00 -4.566644000000000148e+00 6.941316999999999737e+00 2.232273000000000174e+00 -4.567192000000000363e+00 6.943004000000000175e+00 1.730999999999999900e-03 -1.070899999999999977e-02 -1.327999999999999970e-03 4.704999999999999981e-03 -5.694000000000000276e-03 2.729999999999999788e-03 1.173999999999999913e-03 -1.802999999999999915e-03 3.798999999999999860e-03 4.073000000000000231e-03 -1.110399999999999929e-02 -2.223000000000000149e-03 2.233617999999999881e+00 -4.565627000000000102e+00 6.934703999999999979e+00 2.231631000000000142e+00 -4.564447000000000365e+00 6.935692999999999664e+00 2.231427000000000049e+00 -4.566203999999999930e+00 6.939587000000000394e+00 2.432000000000000134e-03 -5.041999999999999607e-03 -2.890999999999999907e-03 -2.232728999999999964e+00 4.566359000000000279e+00 -6.941836999999999591e+00 -2.232671999999999990e+00 4.564201999999999870e+00 -6.932826000000000377e+00 -2.231586000000000070e+00 4.565882000000000218e+00 -6.941404000000000352e+00 -2.232619999999999827e+00 4.566119999999999735e+00 -6.940183000000000213e+00 -2.233058999999999905e+00 4.566857999999999862e+00 -6.941025999999999918e+00 1.062999999999999926e-03 -2.570000000000000127e-04 4.788999999999999854e-03 1.275000000000000092e-03 8.710000000000000294e-04 4.014000000000000207e-03 -1.015000000000000060e-03 -3.274000000000000000e-03 -1.099999999999999971e-05 2.231570000000000054e+00 -4.563653000000000404e+00 6.932215000000000238e+00 2.232048999999999950e+00 -4.565957000000000043e+00 6.940637999999999863e+00 2.232625000000000082e+00 -4.565049000000000134e+00 6.934530999999999779e+00 2.232559999999999878e+00 -4.567161999999999722e+00 6.938886000000000109e+00 2.232794999999999863e+00 -4.563799999999999635e+00 6.932851999999999570e+00 -2.232347999999999999e+00 4.566355999999999860e+00 -6.939390999999999643e+00 -2.233324999999999783e+00 4.564064000000000121e+00 -6.933410000000000295e+00 -2.233248999999999818e+00 4.566042999999999630e+00 -6.941196999999999839e+00 -2.232930000000000081e+00 4.565752999999999950e+00 -6.941017000000000436e+00 -2.232791000000000192e+00 4.565307999999999922e+00 -6.940455000000000041e+00 2.232473999999999847e+00 -4.566925000000000345e+00 6.939842999999999762e+00 2.232737999999999889e+00 -4.566309999999999647e+00 6.933435000000000237e+00 -2.233623000000000136e+00 4.566974000000000089e+00 -6.943654000000000437e+00 2.981000000000000143e-03 -9.799999999999999684e-03 -5.820000000000000520e-04 -2.232626000000000221e+00 4.566530000000000200e+00 -6.944429999999999659e+00 3.178999999999999968e-03 -4.637999999999999762e-03 5.555000000000000042e-03 -2.233287999999999940e+00 4.565444000000000280e+00 -6.940621000000000151e+00 1.675999999999999972e-03 -5.033000000000000147e-03 -1.083999999999999894e-03 -2.234811000000000103e+00 4.564052000000000220e+00 -6.935868000000000144e+00 2.145000000000000205e-03 -7.354000000000000294e-03 4.108999999999999805e-03 -2.232521999999999895e+00 4.564553000000000083e+00 -6.941009000000000206e+00 2.231078000000000117e+00 -4.566243000000000052e+00 6.943083999999999811e+00 -1.859999999999999945e-04 1.489000000000000089e-03 3.936000000000000262e-03 2.233191000000000148e+00 -4.565851999999999578e+00 6.942118999999999929e+00 1.438999999999999958e-03 1.149999999999999981e-03 3.958999999999999846e-03 4.249000000000000173e-03 2.402000000000000055e-03 3.103999999999999988e-03 2.231505999999999990e+00 -4.564485999999999599e+00 6.932789999999999786e+00 7.550000000000000287e-04 3.115000000000000147e-03 2.958999999999999825e-03 -2.400000000000000061e-05 -3.338999999999999954e-03 -1.990000000000000015e-03 2.232082000000000122e+00 -4.567255000000000287e+00 6.940183000000000213e+00 2.232102999999999948e+00 -4.567679000000000045e+00 6.940482000000000262e+00 2.847000000000000138e-03 -4.163000000000000034e-03 5.295000000000000227e-03 -2.234341000000000133e+00 4.564499999999999780e+00 -6.934116000000000390e+00 -2.232261999999999968e+00 4.566436999999999635e+00 -6.944187000000000332e+00 -2.232581000000000149e+00 4.563985999999999876e+00 -6.937318999999999569e+00 -2.233766999999999836e+00 4.566830999999999641e+00 -6.944792999999999772e+00 2.232346999999999859e+00 -4.567326999999999693e+00 6.940737000000000378e+00 1.845000000000000069e-03 -1.069200000000000012e-02 4.279999999999999950e-03 2.232779999999999987e+00 -4.567333999999999783e+00 6.940896999999999650e+00 2.935999999999999808e-03 -3.704999999999999960e-03 2.338999999999999933e-03 2.232918000000000180e+00 -4.564951999999999899e+00 6.932765999999999984e+00 3.067999999999999981e-03 -5.934000000000000039e-03 4.036999999999999790e-03 1.134999999999999941e-03 -1.357599999999999953e-02 -1.800000000000000113e-04 2.232690999999999981e+00 -4.566042000000000378e+00 6.939371999999999652e+00 2.230815000000000214e+00 -4.565998999999999697e+00 6.937420000000000364e+00 2.231632999999999978e+00 -4.566290000000000404e+00 6.940654000000000323e+00 -2.234164999999999957e+00 4.562717000000000134e+00 -6.933828000000000102e+00 -2.231726000000000099e+00 4.567079999999999806e+00 -6.943050999999999640e+00 -2.233137000000000150e+00 4.565101000000000298e+00 -6.935493000000000130e+00 -2.233054999999999790e+00 4.566709999999999603e+00 -6.941512999999999600e+00 2.232917000000000041e+00 -4.566149000000000235e+00 6.940542999999999907e+00 2.233207000000000164e+00 -4.564015000000000377e+00 6.934645999999999866e+00 2.232467000000000201e+00 -4.566456999999999766e+00 6.939263999999999655e+00 2.231287000000000020e+00 -4.565782999999999703e+00 6.938520999999999717e+00 -2.232826999999999895e+00 4.566972999999999949e+00 -6.941961000000000048e+00 2.962999999999999922e-03 -1.886000000000000090e-03 5.844000000000000236e-03 -2.233022000000000062e+00 4.565089000000000397e+00 -6.937439999999999607e+00 1.673999999999999924e-03 6.930000000000000396e-04 4.388999999999999672e-03 -2.079999999999999872e-04 -5.074999999999999650e-03 6.074999999999999671e-03 -2.233105000000000118e+00 4.567389999999999617e+00 -6.942518999999999885e+00 2.286999999999999970e-03 -7.381999999999999673e-03 -1.123000000000000083e-03 -2.232753999999999905e+00 4.562945000000000029e+00 -6.933239999999999625e+00 1.755000000000000050e-03 -3.658999999999999926e-03 5.863000000000000156e-03