-4.702363191599999936e+02
-4.702363205699999753e+02
-4.702363233500000206e+02
-4.702363275899999735e+02
-4.702363333800000191e+02
-4.702363408300000174e+02
