-4.702366273900000238e+02
-4.702366282099999921e+02
-4.702366298499999857e+02
-4.702366323499999794e+02
-4.702366357600000129e+02
-4.702366400299999896e+02
