-2.128999275490960248e-03 -1.323000048015869450e-03 1.131280000130732988e-01 -9.996652543171892470e-06 -4.215899997199052535e-02 2.879800004216683321e-02 2.110000094018702442e-03 -1.085999838269571197e-03 2.152999989437884547e-03 2.700004284165737181e-05 -5.849999982116960281e-04 -2.539999995646933639e-04 1.246999985092020480e-03 1.280000933649944950e-04 -9.470000070111160052e-04 1.553400088648502521e-02 -1.281599884014169438e-02 -1.499900007294383344e-02 -1.573499910148646111e-02 -1.289600120394243654e-02 -1.391599990026356169e-02 -1.030000002064175753e-03 3.699992223368514640e-05 1.330000056484927215e-04 -2.179999379394412001e-04 -7.700000157951722045e-04 6.930000019724634648e-04 1.300000069573407305e-03 -9.439999020102915993e-04 -3.300000062328727231e-04 2.230003766946224615e-04 -5.136999985273033899e-03 -2.140999996099699453e-03 -1.295999929500238216e-03 -9.580000983704135701e-04 -3.539999918893436330e-04 -1.539998353127243588e-04 -2.166000011489230964e-03 1.580000030136241725e-04 3.510001807903401303e-04 -2.298999972202180227e-03 1.253000000358947671e-03 -1.390000232754173371e-04 3.159999896002663373e-04 1.130000004516149373e-04 -5.700003973620311416e-05 4.529999946981881197e-04 -9.920000001378593852e-04 2.784997855494479504e-03 2.851000021274980450e-02 2.121999956149234288e-03 2.505991679008527304e-03 1.114730002093877737e-01 1.988099987481948411e-02 -2.781999860853664238e-03 -4.210001909852087009e-04 1.944000001577676426e-02 -2.488000038092103017e-03 2.093999833597440241e-03 2.179000001164175387e-02 1.018999990690390000e-03 1.519000096171747600e-03 1.912599999285797409e-02 -3.679995978336323011e-04 -3.708000005803692087e-03 2.205300000573514121e-02 1.065000489546663164e-03 -4.832999897009996812e-03 2.246899999894892350e-02 -1.718999923176377708e-03 4.109998895186303572e-04 1.954900000907809285e-02 6.160002729443254639e-04 -2.164999933649974524e-03 1.978399999876233675e-02 1.590000857419731890e-04 3.530000323723322606e-04 2.036999999876974027e-02 -6.169997278095021385e-04 -2.187000027339590369e-03 1.934600000559029073e-02 -1.609996949162731199e-04 -2.504999991251991021e-03 2.094800000339088267e-02 2.042600147753028186e-02 -1.953199845511836494e-02 5.799990676148728490e-05 5.934000471325277457e-03 -4.993999534267087002e-03 1.696199997223356640e-02 3.700000694887171839e-04 4.920000472914842380e-04 1.932999999746620734e-02 -2.672099892551294681e-02 -1.402800201846482984e-02 2.454000161508297639e-03 -3.159899908792059009e-02 -1.426400242000855009e-02 -3.020199981133011094e-02 6.196999949884143474e-03 -3.389995450278789329e-04 -1.372400003386792591e-02 7.099999467138678935e-04 -8.459999675236542409e-04 -2.124500000307404796e-02 2.466600090874113832e-02 -1.476899817218765149e-02 -3.772600012140035070e-02 -2.041999858752661066e-03 -3.186000172480689483e-03 -1.806399998554603439e-02 -6.369992085355308210e-04 -1.306500008376142684e-02 -3.562499998343352653e-02 2.034999921322034732e-03 -3.169998646685383671e-04 -1.859700001091625990e-02 6.419997788504515574e-04 1.389000027545243907e-03 -2.103300000493118702e-02 1.574000005175148383e-03 -1.575999901590770811e-03 -2.065600000711402540e-02 -3.400001757383543403e-04 7.989999534191718437e-04 -2.088999999892135126e-02 1.053999735082775590e-03 1.948000058435211609e-03 -2.130300000776373659e-02 -2.282000084219558585e-03 -4.240001936315862486e-04 -2.106699998698016371e-02 -2.509000465018233934e-03 4.583999788830746443e-03 -2.143699999072953485e-02 -9.640001989832050347e-04 1.156999906919110692e-03 -2.019599999583455638e-02 2.496999762029057223e-03 1.746000169681299549e-03 -1.918900001552711898e-02 9.669976077097409669e-04 2.892300003606705638e-02 -3.710900003422820670e-02
-2.128999275647164291e-03 -1.324000048057822352e-03 1.130860000130742976e-01 -9.996654354425938725e-06 -4.213599997200350583e-02 2.878500004214385941e-02 2.106000094002142674e-03 -1.085999838575088961e-03 2.149999989459964143e-03 2.900004284165736622e-05 -5.849999980604355136e-04 -2.539999995757330899e-04 1.244999985103059995e-03 1.280000932157317314e-04 -9.450000070000762848e-04 1.552400088590206312e-02 -1.280799884089400299e-02 -1.499500007289662588e-02 -1.572499910198827192e-02 -1.288900120318113920e-02 -1.391099990032575347e-02 -1.029000002285546502e-03 3.999992231031427751e-05 1.340000056399762293e-04 -2.179999380095515944e-04 -7.690000157941734131e-04 6.940000019714645052e-04 1.297000069578927231e-03 -9.439999022361834956e-04 -3.290000062163131369e-04 2.220003764787713914e-04 -5.133999985346664706e-03 -2.138999996097176032e-03 -1.292999929802759280e-03 -9.540000981435228095e-04 -3.539999919098986967e-04 -1.549998353993943122e-04 -2.165000011566858406e-03 1.560000030181451656e-04 3.500001806335597556e-04 -2.296999972278809202e-03 1.252000000362469894e-03 -1.400000233455277285e-04 3.169999895256349798e-04 1.140000004561359355e-04 -5.500003973620311976e-05 4.529999948494486343e-04 -9.920000001488989486e-04 2.781997856876255743e-03 2.849100021251292289e-02 2.111999956184772674e-03 2.505991681821758722e-03 1.114350002093767861e-01 1.986999987485743926e-02 -2.780999860807281069e-03 -4.230001909285571260e-04 1.942100001577324458e-02 -2.483000038029160080e-03 2.091999833959609471e-03 2.177400001161615417e-02 1.014999990694262239e-03 1.518000095856241382e-03 1.911299999288105372e-02 -3.709995980086200026e-04 -3.707000006048562050e-03 2.203500000575070103e-02 1.066000488945493358e-03 -4.825999896947352416e-03 2.245599999893641355e-02 -1.713999923399396347e-03 4.129998898837962027e-04 1.953600000904849587e-02 6.150002727157870058e-04 -2.162999933739589205e-03 1.976999999876585812e-02 1.560000856646952239e-04 3.530000321314572323e-04 2.035599999878629981e-02 -6.109997279198991441e-04 -2.187000026905786335e-03 1.932600000555717568e-02 -1.579996951558512882e-04 -2.502999991041082208e-03 2.093200000337232247e-02 2.041000147699535347e-02 -1.952499845632944819e-02 5.699990684281283865e-05 5.926000471609589766e-03 -4.998999534889109198e-03 1.694499997228272187e-02 3.700000694114392104e-04 4.920000472774999816e-04 1.931599999746620722e-02 -2.670699892608099577e-02 -1.402100201741299929e-02 2.447000161424027313e-03 -3.158099908834512137e-02 -1.425700241862822709e-02 -3.018299981143646518e-02 6.190999950286021729e-03 -3.429995454636806528e-04 -1.370600003383081085e-02 7.099999468408244984e-04 -8.459999675006799969e-04 -2.122200000307404924e-02 2.464700090796604834e-02 -1.475699817360065329e-02 -3.770200012130745654e-02 -2.041999858935392934e-03 -3.183000172472698515e-03 -1.805599998554903093e-02 -6.369992086078656458e-04 -1.306200008373345836e-02 -3.559699998343652388e-02 2.031999921307122651e-03 -3.159998648844414846e-04 -1.858600001090069884e-02 6.409997787819888279e-04 1.391000027484596722e-03 -2.101800000492766440e-02 1.565000005252426300e-03 -1.575999902257458870e-03 -2.064200000706434626e-02 -3.410001757587860461e-04 7.999999533535303653e-04 -2.087999999891683098e-02 1.054999735252243245e-03 1.947000058527822508e-03 -2.128600000776826109e-02 -2.277000084276981171e-03 -4.220001932364540308e-04 -2.104999998700976191e-02 -2.502000463860052683e-03 4.569999789378138312e-03 -2.141899999075418809e-02 -9.660001990295882281e-04 1.158999906786828751e-03 -2.017699999582551681e-02 2.494999762316666304e-03 1.743000169541026592e-03 -1.917800001551308101e-02 9.649976093918140188e-04 2.890200003593277472e-02 -3.709200003419618752e-02
-2.127999276206894372e-03 -1.322000048056108830e-03 1.130120000130667712e-01 -8.996657938295045582e-06 -4.208999997194685927e-02 2.876600004209238851e-02 2.107000094147883432e-03 -1.087999838500457520e-03 2.148999989456442088e-03 2.900004292280747970e-05 -5.859999980594366624e-04 -2.529999995747342443e-04 1.243999984946279674e-03 1.300000931391025660e-04 -9.460000069965541700e-04 1.550700088481728883e-02 -1.279299884217072886e-02 -1.498600007281777197e-02 -1.570699910313211670e-02 -1.287300120180781028e-02 -1.389899990044109364e-02 -1.028000002425767537e-03 4.199992238794228011e-05 1.360000056324586098e-04 -2.169999380907016904e-04 -7.680000157195420070e-04 6.930000019649458238e-04 1.296000069427666801e-03 -9.419999023118138127e-04 -3.290000062127910519e-04 2.200003758792492289e-04 -5.125999985496927994e-03 -2.137999996094127556e-03 -1.291999929872869731e-03 -9.530000980668936524e-04 -3.529999919164174380e-04 -1.539998352426139646e-04 -2.167000011490229864e-03 1.570000030146230508e-04 3.480001806390795971e-04 -2.296999972429070950e-03 1.253000000373509591e-03 -1.400000232588577453e-04 3.159999895276327064e-04 1.160000004571348054e-04 -5.500003966057286249e-05 4.519999948494486642e-04 -9.920000001479001815e-04 2.779997859519442362e-03 2.845700021237464877e-02 2.124999956229773994e-03 2.502991686564385622e-03 1.113720002091458938e-01 1.986599987493693417e-02 -2.779999860646628629e-03 -4.260001908649133930e-04 1.940900001577071723e-02 -2.480000038014247999e-03 2.090999834175513022e-03 2.176300001160059311e-02 1.013999990720213787e-03 1.517000095771621005e-03 1.910399999288757075e-02 -3.699995978369277280e-04 -3.710000005982921380e-03 2.202500000574817915e-02 1.064000488803624805e-03 -4.824999897110598436e-03 2.244399999894645253e-02 -1.711999923653886304e-03 4.159998900300623044e-04 1.953100000903446043e-02 6.140002727417384447e-04 -2.163999933824209149e-03 1.976099999877237862e-02 1.550000856260562400e-04 3.530000320488348468e-04 2.034899999879181964e-02 -6.099997279419785718e-04 -2.187000026834151796e-03 1.932200000555165526e-02 -1.579996953678302143e-04 -2.500999991052070114e-03 2.092100000337032695e-02 2.038300147586254510e-02 -1.950899845835748006e-02 7.099990697586691679e-05 5.923000471679700819e-03 -4.999999535116999953e-03 1.694399997230027974e-02 3.710000694594702041e-04 4.910000473481358372e-04 1.931099999746168500e-02 -2.667999892713817170e-02 -1.400600201535699522e-02 2.461000161260008031e-03 -3.155199908901145517e-02 -1.424600241640498234e-02 -3.015299981160752402e-02 6.186999950590191082e-03 -3.459995457522174441e-04 -1.369200003380573356e-02 7.099999467502824497e-04 -8.439999674896924266e-04 -2.121100000307604705e-02 2.462600090729419669e-02 -1.474599817515992103e-02 -3.767300012120252534e-02 -2.034999858891234185e-03 -3.183000171935295494e-03 -1.804799998558767257e-02 -6.359992088756197563e-04 -1.305700008363784928e-02 -3.557699998344703712e-02 2.024999921556093572e-03 -3.189998654098578023e-04 -1.858200001085906841e-02 6.399997789017779649e-04 1.390000027416957336e-03 -2.101000000492114772e-02 1.565000005324184438e-03 -1.575999902244473597e-03 -2.062900000706434714e-02 -3.400001756925477743e-04 7.999999534411471281e-04 -2.086799999892235274e-02 1.052999735388591811e-03 1.946000058387549816e-03 -2.127500000775622152e-02 -2.276000083983851802e-03 -4.250001931488372325e-04 -2.103799998701228607e-02 -2.498000462150380251e-03 4.548999789702634633e-03 -2.139699999075529019e-02 -9.650001986663489257e-04 1.154999906873446650e-03 -2.016599999582704278e-02 2.492999762598755494e-03 1.740000169399754867e-03 -1.916800001549904750e-02 9.639976118318373298e-04 2.887200003588810682e-02 -3.706100003416069877e-02
-2.118999276870924073e-03 -1.323000047509285959e-03 1.128780000130180927e-01 -1.299666342560800724e-05 -4.201999997228434564e-02 2.873100004204454799e-02 2.100000093850882231e-03 -1.083999839028870456e-03 2.149999989491085516e-03 3.000004253913633097e-05 -5.809999979848052675e-04 -2.539999995852484276e-04 1.241999985103060030e-03 1.280000929888409596e-04 -9.450000069835167230e-04 1.548000088369552198e-02 -1.277699884419676059e-02 -1.497000007268471829e-02 -1.567999910434607347e-02 -1.285600119975280689e-02 -1.388599990060711102e-02 -1.024000002302106159e-03 3.999992268546893745e-05 1.310000056123769769e-04 -2.199999380095515888e-04 -7.690000159454339276e-04 6.940000019825041770e-04 1.297000069038475650e-03 -9.369999022381814016e-04 -3.310000062233053137e-04 2.230003754365073487e-04 -5.119999985268039976e-03 -2.135999996116679997e-03 -1.289999930110800018e-03 -9.500000979176309243e-04 -3.549999919304537848e-04 -1.559998359398458091e-04 -2.158000011644487220e-03 1.540000030166729060e-04 3.540001803901094107e-04 -2.293999971979284944e-03 1.249000000337393635e-03 -1.390000230540464011e-04 3.129999895992674973e-04 1.120000004546115664e-04 -5.500003962745373195e-05 4.519999948554419169e-04 -9.860000001479000357e-04 2.778997862972483034e-03 2.841200021230800773e-02 2.133999956280243065e-03 2.497991691764665702e-03 1.113020002087507648e-01 1.984899987503445026e-02 -2.775999860626196959e-03 -4.270001905723810887e-04 1.939900001574963728e-02 -2.477000037789005467e-03 2.086999834388419007e-03 2.174900001158802665e-02 1.014999990665015235e-03 1.517000095837262507e-03 1.909399999288205127e-02 -3.689995980709861361e-04 -3.708000005922273880e-03 2.201000000574065973e-02 1.065000488807496841e-03 -4.825999897047955102e-03 2.243099999894193272e-02 -1.714999923249783519e-03 4.099998897941816703e-04 1.952200000905701324e-02 6.150002725242397069e-04 -2.161999933760565783e-03 1.974899999876485873e-02 1.570000857386777621e-04 3.510000321931032387e-04 2.034199999878277473e-02 -6.139997277056957791e-04 -2.191000027148658994e-03 1.931000000557773003e-02 -1.579996957310696550e-04 -2.496999991063057756e-03 2.091000000336633302e-02 2.035000147468723000e-02 -1.949199846083329857e-02 9.099990714104123999e-05 5.920000472008173781e-03 -5.004999535352880509e-03 1.693499997232182988e-02 3.710000694633423237e-04 4.900000473351504319e-04 1.929799999746268160e-02 -2.664399892866017167e-02 -1.398500201262232144e-02 2.473000161040316870e-03 -3.152099908973851616e-02 -1.423500241404146612e-02 -3.013399981178963016e-02 6.184999951211793412e-03 -3.539995459004812556e-04 -1.368900003378670412e-02 7.089999467889213309e-04 -8.439999675583305556e-04 -2.120400000307052710e-02 2.459600090591406579e-02 -1.472599817740485699e-02 -3.764900012105690946e-02 -2.023999858675383685e-03 -3.186000171105360379e-03 -1.804999998564539229e-02 -6.369992089661619377e-04 -1.305500008370249349e-02 -3.556599998344352198e-02 2.015999921950803984e-03 -3.239998660875335044e-04 -1.857900001080439040e-02 6.379997789348970400e-04 1.390000027271690074e-03 -2.100400000491010541e-02 1.565000005589714223e-03 -1.578999902237481542e-03 -2.062200000706134947e-02 -3.390001754325378544e-04 7.969999535227705652e-04 -2.086199999892487250e-02 1.050999735648601874e-03 1.943000058242282590e-03 -2.126900000774218508e-02 -2.277000083648211565e-03 -4.290001932184742801e-04 -2.103199998700277032e-02 -2.494000459933376230e-03 4.520999790023134957e-03 -2.137899999074939841e-02 -9.620001984063389572e-04 1.151999907106330710e-03 -2.015999999584060579e-02 2.487999762864285917e-03 1.737000169028595853e-03 -1.916100001546845039e-02 9.619976147681531852e-04 2.883500003576182011e-02 -3.703600003411270519e-02
-2.109999278996728053e-03 -1.310000047035381199e-03 1.126710000129554218e-01 -1.499667434116325873e-05 -4.188099997250852025e-02 2.865800004191674383e-02 2.094000093651590764e-03 -1.080999839477657549e-03 2.154999989521207918e-03 2.400004269756443815e-05 -5.819999984236037035e-04 -2.389999995511304432e-04 1.243999984972231354e-03 1.290000931301127167e-04 -9.550000069955552964e-04 1.544200088227288235e-02 -1.275599884704074587e-02 -1.494000007249593996e-02 -1.563299910651785168e-02 -1.282400119615323582e-02 -1.384099990089850650e-02 -1.034000002593587434e-03 4.399992193116409776e-05 1.330000056635800181e-04 -2.159999384578132806e-04 -7.630000156419139857e-04 6.950000019544314966e-04 1.299000069521504246e-03 -9.419999020679421580e-04 -3.120000062293506343e-04 2.110003747243636865e-04 -5.109999986167611599e-03 -2.127999996060430960e-03 -1.280999930538630205e-03 -9.450000972459484750e-04 -3.639999919851268496e-04 -1.619998354954562585e-04 -2.163000012086282054e-03 1.660000030547864006e-04 3.510001798071467859e-04 -2.285999972202180236e-03 1.253000000345962399e-03 -1.380000223198232562e-04 3.029999896709022807e-04 1.080000004590804828e-04 -5.800003923826271802e-05 4.469999946305489372e-04 -9.840000001263462647e-04 2.779997867950815583e-03 2.834800021240860973e-02 2.158999956338651487e-03 2.489991699360811009e-03 1.112020002081517273e-01 1.985499987517849729e-02 -2.778999860004595195e-03 -4.350001907962752117e-04 1.940200001577419009e-02 -2.468000037606273706e-03 2.083999835061100571e-03 2.174100001154134418e-02 1.014999991426837698e-03 1.507000095838261682e-03 1.909499999289204081e-02 -3.689995975691735689e-04 -3.715000005927268211e-03 2.200500000574765261e-02 1.066000489087938659e-03 -4.829999896976319360e-03 2.242699999894040563e-02 -1.717999923423123342e-03 4.119998895632953910e-04 1.951800000907157398e-02 6.140002728212409300e-04 -2.165999933837194687e-03 1.974799999877437789e-02 1.620000853699184716e-04 3.550000325592679541e-04 2.032999999875118383e-02 -6.139997280358161502e-04 -2.187000027153653599e-03 1.930500000557373169e-02 -1.589996959910795749e-04 -2.493999991144681301e-03 2.090400000336885278e-02 2.030800147201034661e-02 -1.945499846398780069e-02 1.129999073359167340e-04 5.913000471344059990e-03 -4.995999535879295031e-03 1.693799997235148277e-02 3.740000694948136957e-04 4.890000475540501757e-04 1.928999999744712354e-02 -2.659699893060282760e-02 -1.395800200904971991e-02 2.491000160753914245e-03 -3.147199909105404675e-02 -1.421600241031360790e-02 -3.011199981207908147e-02 6.183999951315021469e-03 -3.549995459711171599e-04 -1.368400003378018523e-02 7.059999467740095749e-04 -8.429999677742336731e-04 -2.119300000305496604e-02 2.454700090423858616e-02 -1.470099818107178415e-02 -3.761000012081140709e-02 -2.006999858610793337e-03 -3.187000169821643889e-03 -1.805199998573822975e-02 -6.309992087265837947e-04 -1.305700008323272890e-02 -3.554999998347464080e-02 1.996999923230998765e-03 -3.409998675255071932e-04 -1.858000001068253401e-02 6.349997790011354315e-04 1.390000027056785808e-03 -2.099200000489354762e-02 1.568000006131813322e-03 -1.584999901994608692e-03 -2.060600000707191182e-02 -3.350001749566769243e-04 7.909999538292871672e-04 -2.085799999894095980e-02 1.044999736423111525e-03 1.934000057805481928e-03 -2.125200000770007674e-02 -2.277000083128191774e-03 -4.350001932064877035e-04 -2.101999998699677699e-02 -2.490000457028531365e-03 4.484999790358618760e-03 -2.134599999073552232e-02 -9.600001983345808794e-04 1.151999907270576497e-03 -2.014699999585164644e-02 2.485999763151894564e-03 1.734000168888322896e-03 -1.915000001545441241e-02 9.609976190785012463e-04 2.878100003572714449e-02 -3.699500003405324644e-02
-2.101999278674187253e-03 -1.332000046673066304e-03 1.124280000129332380e-01 3.003313044072212095e-06 -4.171799997119911285e-02 2.860600004165456817e-02 2.086000092524881600e-03 -1.067999840108670379e-03 2.128999989552381351e-03 2.300004378176290681e-05 -5.939999984672699124e-04 -2.069999995336240287e-04 1.245999984294854195e-03 1.400000933093417134e-04 -9.270000070175825682e-04 1.538300087695058764e-02 -1.268299885146697073e-02 -1.490400007224318771e-02 -1.561699910745194091e-02 -1.280800119489320862e-02 -1.379099990100280705e-02 -9.950000026675703824e-04 4.599992489472841585e-05 1.470000054463078693e-04 -2.329999359620147433e-04 -7.960000169276284024e-04 6.950000020812319764e-04 1.301000072754821338e-03 -9.829999018927085448e-04 -2.880000061994364251e-04 2.020003747503152291e-04 -5.110999986857272734e-03 -2.136999996009753076e-03 -1.290999929269475311e-03 -9.620000980052476535e-04 -3.669999919129473555e-04 -1.769998388441959320e-04 -2.115000013169793507e-03 2.170000030896381536e-04 3.460001780731707458e-04 -2.262999972579332521e-03 1.254000000350587304e-03 -1.410000229767684491e-04 3.129999894619912393e-04 1.260000004656512804e-04 -5.500004123224870996e-05 4.729999948524452047e-04 -9.890000001688764933e-04 2.786997870643681541e-03 2.831400021295999575e-02 2.180999956333974556e-03 2.494991708010259150e-03 1.110880002085348761e-01 1.985999987526477009e-02 -2.779999858860749025e-03 -4.510001908838919839e-04 1.939000001579569213e-02 -2.478000039245835482e-03 2.103999834281823807e-03 2.171800001157656729e-02 1.022999992005928054e-03 1.500000096452293449e-03 1.910399999285487121e-02 -3.809995962337804761e-04 -3.732000006825841616e-03 2.201400000583086936e-02 1.065000488307908839e-03 -4.820999897069929048e-03 2.240899999893693553e-02 -1.707999923367925065e-03 4.119998903295867183e-04 1.952800000901637467e-02 6.230002723122607042e-04 -2.159999933166511198e-03 1.973799999871870062e-02 1.520000854847644578e-04 3.510000317690035727e-04 2.029599999881037675e-02 -5.979997276002418753e-04 -2.194000025960550319e-03 1.928800000549240820e-02 -1.679996960573177972e-04 -2.493999991837340339e-03 2.089200000341853367e-02 2.025000147102270359e-02 -1.943799846832041517e-02 1.669999076390874557e-04 5.908000471723859684e-03 -4.999999536243462592e-03 1.695199997238307568e-02 3.640000692072045945e-04 4.920000467867600459e-04 1.927899999749932772e-02 -2.652499893135418577e-02 -1.394500200356238971e-02 2.533000160343498990e-03 -3.137099909294431554e-02 -1.418400240257906147e-02 -3.001599981266855205e-02 6.179999951812962036e-03 -3.609995462656471143e-04 -1.367600003375211287e-02 7.039999458476624197e-04 -8.289999679015211615e-04 -2.116900000305790841e-02 2.448200090144298305e-02 -1.465899818591882842e-02 -3.754100012049457064e-02 -1.980999859319064471e-03 -3.178000167860251142e-03 -1.805699998589073776e-02 -6.419992089336195142e-04 -1.305200008403369603e-02 -3.551899998341891823e-02 1.982999923994468658e-03 -3.499998685693476649e-04 -1.856500001059626856e-02 6.369997791225721949e-04 1.390000027230021582e-03 -2.097000000490458621e-02 1.568000007771375073e-03 -1.604999901971634500e-03 -2.058300000705193603e-02 -3.460001727860554906e-04 7.649999530343127479e-04 -2.082099999885426989e-02 1.051999736673729473e-03 1.932000058352873438e-03 -2.123400000773671692e-02 -2.277000082686026806e-03 -4.380001931675314708e-04 -2.098099998699378202e-02 -2.491000451839867763e-03 4.417999790304964411e-03 -2.132399999066307561e-02 -9.740001987850670055e-04 1.159999906239721603e-03 -2.011899999578235787e-02 2.491999765073545699e-03 1.711000169375067638e-03 -1.911700001546455530e-02 9.639976255655669781e-04 2.869800003599199192e-02 -3.695700003398689343e-02
