-4.702362098899999978e+02
-4.702362109100000112e+02
-4.702362128899999902e+02
-4.702362159099999985e+02
-4.702362200399999779e+02
-4.702362252300000023e+02
