2.658279999999999976e+00 3.305320000000000036e+00 4.661319999999999908e+00 7.534300000000000441e-01 3.881829999999999892e+00 2.214010000000000034e+00 2.045980000000000132e+00 1.187030000000000030e+00 2.214049999999999851e+00 5.790029999999999788e+00 3.305320000000000036e+00 4.661330000000000418e+00 3.885159999999999947e+00 3.881839999999999957e+00 2.213999999999999968e+00 5.177719999999999878e+00 1.187019999999999964e+00 2.214049999999999851e+00 8.921749999999999403e+00 3.305330000000000101e+00 4.661319999999999908e+00 7.016899999999999693e+00 3.881829999999999892e+00 2.213989999999999903e+00 8.309459999999999624e+00 1.187009999999999899e+00 2.214049999999999851e+00 1.365750000000000020e+00 6.000180000000000291e+00 4.661319999999999908e+00 2.592639999999999834e+00 6.576679999999999637e+00 2.214039999999999786e+00 4.497480000000000366e+00 6.000160000000000160e+00 4.661330000000000418e+00 5.724380000000000024e+00 6.576679999999999637e+00 2.214039999999999786e+00 7.629209999999999603e+00 6.000180000000000291e+00 4.661340000000000039e+00 8.856109999999999260e+00 6.576679999999999637e+00 2.214039999999999786e+00 1.966020000000000101e+00 4.784690000000000332e+00 9.116419999999999746e+00 3.258570000000000189e+00 2.089879999999999960e+00 9.116469999999999629e+00 5.097749999999999559e+00 4.784699999999999953e+00 9.116419999999999746e+00 6.390310000000000379e+00 2.089879999999999960e+00 9.116469999999999629e+00 8.229480000000000572e+00 4.784699999999999953e+00 9.116429999999999367e+00 9.522050000000000125e+00 2.089879999999999960e+00 9.116460000000000008e+00 3.805239999999999956e+00 7.479549999999999699e+00 9.116469999999999629e+00 6.936969999999999636e+00 7.479540000000000077e+00 9.116460000000000008e+00 1.006869999999999976e+01 7.479549999999999699e+00 9.116479999999999251e+00 8.191000000000000503e-01 6.105000000000000426e-01 4.661330000000000418e+00 3.950820000000000221e+00 6.105000000000000426e-01 4.661330000000000418e+00 7.082559999999999967e+00 6.105000000000000426e-01 4.661330000000000418e+00 3.870870000000000033e+00 4.208169999999999966e+00 1.156375000000000064e+01 7.002609999999999779e+00 4.208190000000000097e+00 1.156376000000000026e+01 1.013434999999999953e+01 4.208190000000000097e+00 1.156375000000000064e+01 2.578329999999999789e+00 6.903030000000000221e+00 1.156376000000000026e+01 5.710069999999999979e+00 6.903010000000000090e+00 1.156376999999999988e+01 8.841810000000000613e+00 6.903019999999999712e+00 1.156375000000000064e+01 5.083470000000000155e+00 5.111030000000000406e+00 1.846619000000000099e+01 3.178599999999999870e+00 5.687540000000000262e+00 1.601885000000000048e+01 4.471169999999999867e+00 2.992739999999999956e+00 1.601891000000000176e+01 8.215210000000000790e+00 5.111030000000000406e+00 1.846619000000000099e+01 6.310340000000000060e+00 5.687540000000000262e+00 1.601885000000000048e+01 7.602890000000000370e+00 2.992719999999999825e+00 1.601889999999999858e+01 1.134694000000000003e+01 5.111040000000000028e+00 1.846619000000000099e+01 9.442069999999999297e+00 5.687549999999999883e+00 1.601886000000000010e+01 1.073462999999999923e+01 2.992729999999999890e+00 1.601889999999999858e+01 3.790919999999999845e+00 7.805869999999999642e+00 1.846620000000000061e+01 5.017809999999999881e+00 8.382389999999999119e+00 1.601889999999999858e+01 6.922659999999999592e+00 7.805880000000000152e+00 1.846618000000000137e+01 8.149559999999999249e+00 8.382389999999999119e+00 1.601891000000000176e+01 1.005438999999999972e+01 7.805869999999999642e+00 1.846620000000000061e+01 1.128129000000000026e+01 8.382400000000000517e+00 1.601891000000000176e+01 2.031690000000000218e+00 1.513349999999999973e+00 1.156376000000000026e+01 5.163420000000000343e+00 1.513360000000000039e+00 1.156376999999999988e+01 8.295149999999999579e+00 1.513349999999999973e+00 1.156376000000000026e+01 3.244260000000000144e+00 2.416199999999999903e+00 1.846618000000000137e+01 6.376019999999999577e+00 2.416199999999999903e+00 1.846619000000000099e+01 9.507749999999999702e+00 2.416209999999999969e+00 1.846620000000000061e+01 1.300089999999999968e+00 9.271499999999999631e+00 2.213999999999999968e+00 4.431809999999999583e+00 9.271509999999999252e+00 2.213999999999999968e+00 7.563559999999999839e+00 9.271499999999999631e+00 2.213999999999999968e+00 1.912409999999999943e+00 1.138983999999999952e+01 4.661319999999999908e+00 3.751590000000000202e+00 1.408465999999999951e+01 4.661330000000000418e+00 1.846740000000000048e+00 1.466117999999999988e+01 2.213999999999999968e+00 3.139279999999999848e+00 1.196636999999999951e+01 2.214049999999999851e+00 5.044130000000000003e+00 1.138984999999999914e+01 4.661330000000000418e+00 6.883329999999999949e+00 1.408466999999999913e+01 4.661319999999999908e+00 4.978469999999999729e+00 1.466117000000000026e+01 2.213999999999999968e+00 6.271029999999999660e+00 1.196635000000000026e+01 2.214030000000000165e+00 8.175869999999999749e+00 1.138982999999999990e+01 4.661319999999999908e+00 1.001506000000000007e+01 1.408465999999999951e+01 4.661330000000000418e+00 8.110200000000000742e+00 1.466117999999999988e+01 2.214010000000000034e+00 9.402770000000000294e+00 1.196635999999999989e+01 2.214030000000000165e+00 2.512669999999999959e+00 1.017436000000000007e+01 9.116429999999999367e+00 5.644409999999999705e+00 1.017436000000000007e+01 9.116440000000000765e+00 8.776139999999999830e+00 1.017435000000000045e+01 9.116429999999999367e+00 3.059320000000000039e+00 1.556401999999999930e+01 9.116429999999999367e+00 4.351880000000000415e+00 1.286922000000000033e+01 9.116460000000000008e+00 6.191060000000000230e+00 1.556403000000000070e+01 9.116419999999999746e+00 7.483629999999999782e+00 1.286921000000000070e+01 9.116469999999999629e+00 9.322800000000000864e+00 1.556401999999999930e+01 9.116429999999999367e+00 1.061534999999999940e+01 1.286921000000000070e+01 9.116479999999999251e+00 3.204940000000000122e+00 8.695000000000000284e+00 4.661319999999999908e+00 6.336689999999999934e+00 8.694990000000000663e+00 4.661340000000000039e+00 9.468410000000000437e+00 8.694990000000000663e+00 4.661340000000000039e+00 3.124989999999999934e+00 1.229269999999999996e+01 1.156375000000000064e+01 4.964179999999999815e+00 1.498751999999999995e+01 1.156375000000000064e+01 6.256719999999999615e+00 1.229269000000000034e+01 1.156376000000000026e+01 8.095919999999999561e+00 1.498751000000000033e+01 1.156375000000000064e+01 9.388450000000000628e+00 1.229269999999999996e+01 1.156376000000000026e+01 1.122765000000000057e+01 1.498751000000000033e+01 1.156376000000000026e+01 3.725249999999999950e+00 1.107722000000000051e+01 1.601886999999999972e+01 6.857000000000000206e+00 1.107722000000000051e+01 1.601886999999999972e+01 9.988730000000000331e+00 1.107722000000000051e+01 1.601885000000000048e+01 4.337589999999999613e+00 1.319555000000000078e+01 1.846619000000000099e+01 6.176779999999999937e+00 1.589037000000000077e+01 1.846618000000000137e+01 4.271910000000000096e+00 1.646687999999999974e+01 1.601886999999999972e+01 5.564470000000000027e+00 1.377206999999999937e+01 1.601889999999999858e+01 7.469319999999999737e+00 1.319555000000000078e+01 1.846620000000000061e+01 9.308519999999999683e+00 1.589037000000000077e+01 1.846620000000000061e+01 7.403660000000000352e+00 1.646687999999999974e+01 1.601886000000000010e+01 8.696210000000000662e+00 1.377206999999999937e+01 1.601891000000000176e+01 1.060105000000000075e+01 1.319553999999999938e+01 1.846620000000000061e+01 1.244023999999999930e+01 1.589038000000000039e+01 1.846619000000000099e+01 1.053537999999999997e+01 1.646687999999999974e+01 1.601885000000000048e+01 1.182794999999999952e+01 1.377206999999999937e+01 1.601889999999999858e+01 4.417539999999999800e+00 9.597860000000000724e+00 1.156376999999999988e+01 7.549260000000000304e+00 9.597860000000000724e+00 1.156375000000000064e+01 1.068101000000000056e+01 9.597860000000000724e+00 1.156376000000000026e+01 5.630119999999999791e+00 1.050069000000000052e+01 1.846619000000000099e+01 8.761860000000000426e+00 1.050070000000000014e+01 1.846619000000000099e+01 1.189358999999999966e+01 1.050070999999999977e+01 1.846619000000000099e+01 8.236039999999999139e+00 6.452890000000000015e+00 8.108969999999999345e+00 8.808930000000000149e+00 8.538700000000000401e+00 1.034008000000000038e+01 5.104320000000000412e+00 6.452880000000000393e+00 8.108959999999999724e+00 7.862200000000000299e-01 2.246189999999999909e+00 3.437650000000000095e+00 1.075445000000000029e+01 4.331940000000000346e+00 5.668940000000000090e+00 2.052509999999999835e+00 2.855239999999999778e+00 1.206539999999999946e+00 2.133200000000000096e-01 1.603600000000000025e-01 1.206539999999999946e+00 2.625440000000000218e+00 4.941019999999999968e+00 3.437739999999999796e+00 2.651800000000000157e+00 1.637129999999999974e+00 5.669010000000000105e+00 3.917949999999999822e+00 2.246189999999999909e+00 3.437660000000000160e+00 4.490980000000000416e+00 4.331929999999999836e+00 5.668960000000000221e+00 5.184239999999999959e+00 2.855249999999999844e+00 1.206560000000000077e+00 3.345060000000000144e+00 1.603700000000000125e-01 1.206530000000000102e+00 5.757170000000000343e+00 4.941019999999999968e+00 3.437739999999999796e+00 5.783529999999999838e+00 1.637129999999999974e+00 5.669019999999999726e+00 7.049680000000000391e+00 2.246170000000000222e+00 3.437660000000000160e+00 7.622720000000000162e+00 4.331940000000000346e+00 5.668949999999999712e+00 8.315989999999999327e+00 2.855239999999999778e+00 1.206550000000000011e+00 6.476799999999999891e+00 1.603700000000000125e-01 1.206539999999999946e+00 8.888899999999999579e+00 4.941010000000000346e+00 3.437730000000000175e+00 8.915279999999999205e+00 1.637129999999999974e+00 5.669019999999999726e+00 1.332859999999999934e+00 7.635839999999999961e+00 3.437660000000000160e+00 7.599900000000000544e-01 5.550040000000000084e+00 1.206539999999999946e+00 3.198459999999999859e+00 7.026799999999999713e+00 5.669019999999999726e+00 4.464599999999999902e+00 7.635839999999999961e+00 3.437660000000000160e+00 3.891719999999999846e+00 5.550029999999999575e+00 1.206530000000000102e+00 6.330180000000000362e+00 7.026799999999999713e+00 5.669010000000000105e+00 7.596339999999999648e+00 7.635839999999999961e+00 3.437660000000000160e+00 7.023460000000000036e+00 5.550040000000000084e+00 1.206530000000000102e+00 9.461919999999999220e+00 7.026799999999999713e+00 5.669010000000000105e+00 1.998809999999999976e+00 3.149030000000000218e+00 1.034008000000000038e+01 3.265089999999999826e+00 3.758090000000000153e+00 8.108969999999999345e+00 1.425920000000000076e+00 1.063209999999999988e+00 8.108969999999999345e+00 3.838029999999999831e+00 5.843869999999999898e+00 1.034015999999999913e+01 5.130550000000000388e+00 3.149030000000000218e+00 1.034008000000000038e+01 6.396840000000000082e+00 3.758100000000000218e+00 8.108969999999999345e+00 4.557660000000000267e+00 1.063209999999999988e+00 8.108969999999999345e+00 6.969759999999999955e+00 5.843880000000000408e+00 1.034015999999999913e+01 8.262280000000000513e+00 3.149030000000000218e+00 1.034009000000000000e+01 9.528579999999999828e+00 3.758100000000000218e+00 8.108969999999999345e+00 7.689400000000000013e+00 1.063220000000000054e+00 8.108969999999999345e+00 1.010150999999999932e+01 5.843869999999999898e+00 1.034015999999999913e+01 2.545459999999999834e+00 8.538700000000000401e+00 1.034008000000000038e+01 1.972569999999999935e+00 6.452880000000000393e+00 8.108969999999999345e+00 5.677200000000000024e+00 8.538700000000000401e+00 1.034008000000000038e+01 1.188710999999999984e+01 8.832509999999999195e+00 1.947387000000000157e+01 9.448629999999999640e+00 7.355749999999999567e+00 1.501140999999999970e+01 1.002152000000000065e+01 9.441560000000000841e+00 1.724250999999999934e+01 8.755369999999999209e+00 8.832509999999999195e+00 1.947388000000000119e+01 6.316889999999999894e+00 7.355749999999999567e+00 1.501139000000000046e+01 6.889789999999999637e+00 9.441560000000000841e+00 1.724250999999999934e+01 1.196705000000000041e+01 5.234790000000000276e+00 1.257138999999999918e+01 3.864390000000000214e+00 2.539979999999999905e+00 1.257145000000000046e+01 5.703560000000000407e+00 5.234790000000000276e+00 1.257137999999999955e+01 6.996120000000000339e+00 2.539979999999999905e+00 1.257144000000000084e+01 8.835300000000000153e+00 5.234790000000000276e+00 1.257138999999999918e+01 1.012785000000000046e+01 2.539989999999999970e+00 1.257144000000000084e+01 4.411039999999999850e+00 7.929649999999999643e+00 1.257146000000000008e+01 7.542769999999999975e+00 7.929649999999999643e+00 1.257145000000000046e+01 1.067451999999999934e+01 7.929649999999999643e+00 1.257145000000000046e+01 3.211390000000000189e+00 4.051879999999999704e+00 1.724250999999999934e+01 1.317963999999999913e+01 6.137660000000000338e+00 1.947381999999999991e+01 4.477689999999999948e+00 4.660949999999999704e+00 1.501140000000000008e+01 2.638500000000000068e+00 1.966069999999999984e+00 1.501139000000000046e+01 5.050609999999999822e+00 6.746730000000000338e+00 1.724259999999999948e+01 5.076970000000000205e+00 3.442839999999999900e+00 1.947387000000000157e+01 6.343130000000000379e+00 4.051890000000000214e+00 1.724250999999999934e+01 6.916170000000000151e+00 6.137649999999999828e+00 1.947381000000000029e+01 7.609429999999999694e+00 4.660949999999999704e+00 1.501140000000000008e+01 5.770240000000000258e+00 1.966069999999999984e+00 1.501140000000000008e+01 8.182349999999999568e+00 6.746730000000000338e+00 1.724259999999999948e+01 8.208700000000000330e+00 3.442839999999999900e+00 1.947388000000000119e+01 9.474869999999999237e+00 4.051879999999999704e+00 1.724251999999999896e+01 1.004790000000000028e+01 6.137649999999999828e+00 1.947381999999999991e+01 1.074117000000000033e+01 4.660940000000000083e+00 1.501140999999999970e+01 8.901980000000000004e+00 1.966069999999999984e+00 1.501140000000000008e+01 1.131408000000000058e+01 6.746739999999999959e+00 1.724258999999999986e+01 1.134045000000000059e+01 3.442839999999999900e+00 1.947389000000000081e+01 3.758049999999999891e+00 9.441549999999999443e+00 1.724251999999999896e+01 3.185169999999999835e+00 7.355739999999999945e+00 1.501140000000000008e+01 5.623619999999999841e+00 8.832509999999999195e+00 1.947387000000000157e+01 1.119481000000000037e+01 1.662321999999999989e+01 1.034015999999999913e+01 8.782700000000000173e+00 1.184254999999999924e+01 8.108969999999999345e+00 1.062186999999999948e+01 1.453744000000000014e+01 8.108980000000000743e+00 1.130109999999999992e+01 9.721610000000000085e+00 5.668960000000000221e+00 2.599159999999999915e+00 8.244910000000000849e+00 1.206539999999999946e+00 3.172099999999999920e+00 1.033069000000000059e+01 3.437739999999999796e+00 5.037639999999999674e+00 9.721600000000000463e+00 5.668949999999999712e+00 5.730900000000000105e+00 8.244910000000000849e+00 1.206539999999999946e+00 6.303829999999999600e+00 1.033070000000000022e+01 3.437739999999999796e+00 8.169370000000000687e+00 9.721600000000000463e+00 5.668949999999999712e+00 8.862640000000000740e+00 8.244910000000000849e+00 1.206539999999999946e+00 9.435560000000000613e+00 1.033069000000000059e+01 3.437739999999999796e+00 1.879529999999999923e+00 1.302551000000000059e+01 3.437650000000000095e+00 1.184777000000000058e+01 1.511126999999999931e+01 5.668949999999999712e+00 3.145830000000000126e+00 1.363458999999999932e+01 1.206539999999999946e+00 1.306640000000000024e+00 1.093970999999999982e+01 1.206539999999999946e+00 3.718750000000000000e+00 1.572037000000000084e+01 3.437730000000000175e+00 3.745109999999999939e+00 1.241646000000000072e+01 5.669019999999999726e+00 5.011269999999999669e+00 1.302551000000000059e+01 3.437660000000000160e+00 5.584279999999999688e+00 1.511126999999999931e+01 5.668949999999999712e+00 6.277549999999999741e+00 1.363457000000000008e+01 1.206539999999999946e+00 4.438369999999999926e+00 1.093970999999999982e+01 1.206539999999999946e+00 6.850489999999999746e+00 1.572037000000000084e+01 3.437739999999999796e+00 6.876850000000000129e+00 1.241646000000000072e+01 5.669010000000000105e+00 8.143000000000000682e+00 1.302551000000000059e+01 3.437650000000000095e+00 8.716029999999999944e+00 1.511128000000000071e+01 5.668960000000000221e+00 9.409299999999999997e+00 1.363457999999999970e+01 1.206539999999999946e+00 7.570120000000000182e+00 1.093970000000000020e+01 1.206539999999999946e+00 9.982219999999999871e+00 1.572035999999999945e+01 3.437739999999999796e+00 1.000857000000000063e+01 1.241647000000000034e+01 5.669010000000000105e+00 3.811749999999999972e+00 9.147769999999999513e+00 8.108980000000000743e+00 4.384680000000000355e+00 1.123354999999999926e+01 1.034017000000000053e+01 6.943489999999999718e+00 9.147759999999999891e+00 8.108980000000000743e+00 7.516409999999999592e+00 1.123353999999999964e+01 1.034017000000000053e+01 1.007521999999999984e+01 9.147759999999999891e+00 8.108980000000000743e+00 1.064814999999999934e+01 1.123353999999999964e+01 1.034017000000000053e+01 3.092109999999999914e+00 1.392836999999999925e+01 1.034009000000000000e+01 4.358410000000000117e+00 1.453743000000000052e+01 8.108980000000000743e+00 2.519229999999999858e+00 1.184256000000000064e+01 8.108959999999999724e+00 4.931339999999999613e+00 1.662321000000000026e+01 1.034015999999999913e+01 6.223860000000000170e+00 1.392836999999999925e+01 1.034008000000000038e+01 7.490149999999999864e+00 1.453744000000000014e+01 8.108990000000000364e+00 5.650970000000000049e+00 1.184256000000000064e+01 8.108959999999999724e+00 8.063079999999999359e+00 1.662321000000000026e+01 1.034017000000000053e+01 9.355579999999999785e+00 1.392838000000000065e+01 1.034008000000000038e+01 1.243375999999999948e+01 1.422217999999999982e+01 1.947387000000000157e+01 1.240740000000000087e+01 1.752608000000000033e+01 1.724259999999999948e+01 9.995290000000000674e+00 1.274540999999999968e+01 1.501140000000000008e+01 1.183447999999999922e+01 1.544027999999999956e+01 1.501141999999999932e+01 1.114120999999999917e+01 1.691697999999999880e+01 1.947381999999999991e+01 1.056817000000000029e+01 1.483122000000000007e+01 1.724251999999999896e+01 1.251369000000000042e+01 1.062445999999999913e+01 1.257137999999999955e+01 6.250230000000000175e+00 1.062445999999999913e+01 1.257136999999999993e+01 9.381959999999999411e+00 1.062447000000000052e+01 1.257137999999999955e+01 1.306034999999999968e+01 1.601413000000000153e+01 1.257138999999999918e+01 4.957690000000000374e+00 1.331930999999999976e+01 1.257144000000000084e+01 6.796879999999999811e+00 1.601411999999999836e+01 1.257137999999999955e+01 8.089430000000000121e+00 1.331931999999999938e+01 1.257146000000000008e+01 9.928610000000000824e+00 1.601414000000000115e+01 1.257137999999999955e+01 1.122115999999999936e+01 1.331930999999999976e+01 1.257144000000000084e+01 1.372629000000000055e+01 1.152730999999999995e+01 1.947381000000000029e+01 5.024339999999999584e+00 1.005061000000000071e+01 1.501141999999999932e+01 5.597279999999999589e+00 1.213640000000000008e+01 1.724259999999999948e+01 7.462819999999999787e+00 1.152730999999999995e+01 1.947381000000000029e+01 8.156079999999999330e+00 1.005062000000000033e+01 1.501140999999999970e+01 8.729010000000000602e+00 1.213640000000000008e+01 1.724260999999999910e+01 1.059454999999999991e+01 1.152731999999999957e+01 1.947381999999999991e+01 1.128781999999999996e+01 1.005062000000000033e+01 1.501140999999999970e+01 1.186073999999999984e+01 1.213640999999999970e+01 1.724258999999999986e+01 4.304710000000000036e+00 1.483122000000000007e+01 1.724251999999999896e+01 1.427294000000000018e+01 1.691698999999999842e+01 1.947381000000000029e+01 5.570999999999999730e+00 1.544028999999999918e+01 1.501140000000000008e+01 3.731819999999999915e+00 1.274540999999999968e+01 1.501139000000000046e+01 6.143919999999999604e+00 1.752607000000000070e+01 1.724259999999999948e+01 6.170279999999999987e+00 1.422217000000000020e+01 1.947387000000000157e+01 7.436449999999999783e+00 1.483121000000000045e+01 1.724251999999999896e+01 8.009470000000000312e+00 1.691698999999999842e+01 1.947381999999999991e+01 8.702730000000000743e+00 1.544028999999999918e+01 1.501140000000000008e+01 6.863550000000000040e+00 1.274540999999999968e+01 1.501140000000000008e+01 9.275669999999999860e+00 1.752607000000000070e+01 1.724259999999999948e+01 9.302030000000000243e+00 1.422217000000000020e+01 1.947388000000000119e+01