-2.737560881930000050e+03
-2.737501575560000219e+03
-2.737384917240000050e+03
-2.737212601929999892e+03
-2.736987304180000137e+03
-2.736712603869999839e+03
-2.736392966500000057e+03
-2.736033647300000212e+03
-2.735640542489999916e+03
-2.735220276189999822e+03
