3.397609999999999797e-01 -3.160999999999999921e-02 1.208359999999999990e-01 -3.410230000000000206e-01 3.088099999999999873e-02 -1.188450000000000062e-01 -3.402069999999999816e-01 3.028799999999999895e-02 -1.202470000000000067e-01 3.388240000000000141e-01 -3.167899999999999883e-02 1.200809999999999933e-01 -3.403829999999999911e-01 3.040599999999999900e-02 -1.189859999999999945e-01 -3.394329999999999847e-01 3.106400000000000133e-02 -1.203589999999999938e-01 3.393200000000000105e-01 -3.142699999999999660e-02 1.211379999999999957e-01 -3.417870000000000075e-01 3.136900000000000105e-02 -1.192430000000000018e-01 -3.401750000000000052e-01 3.034799999999999998e-02 -1.203199999999999964e-01 3.393120000000000025e-01 -3.012700000000000100e-02 1.218690000000000051e-01 -3.396390000000000242e-01 3.125399999999999706e-02 -1.206269999999999981e-01 3.390020000000000255e-01 -3.044099999999999931e-02 1.205500000000000044e-01 -3.396980000000000000e-01 2.996800000000000158e-02 -1.201080000000000064e-01 3.393240000000000145e-01 -3.082199999999999870e-02 1.206099999999999950e-01 -3.400869999999999727e-01 3.058400000000000007e-02 -1.200299999999999978e-01 -3.408610000000000251e-01 3.065899999999999875e-02 -1.181979999999999975e-01 -3.401210000000000067e-01 2.996800000000000158e-02 -1.197649999999999965e-01 -3.403169999999999806e-01 2.999200000000000130e-02 -1.183769999999999961e-01 -3.391540000000000110e-01 3.067599999999999841e-02 -1.198970000000000036e-01 -3.413760000000000128e-01 3.073899999999999896e-02 -1.188980000000000037e-01 -3.399449999999999972e-01 2.989999999999999949e-02 -1.199159999999999948e-01 -3.395239999999999925e-01 3.098599999999999965e-02 -1.203999999999999931e-01 -3.399829999999999797e-01 3.006100000000000091e-02 -1.197430000000000022e-01 -3.397240000000000260e-01 3.008299999999999863e-02 -1.199449999999999961e-01 3.387649999999999828e-01 -3.084200000000000136e-02 1.211020000000000013e-01 3.392740000000000200e-01 -3.059900000000000120e-02 1.209640000000000021e-01 3.387459999999999916e-01 -3.017399999999999943e-02 1.210330000000000017e-01 3.398149999999999782e-01 -3.162199999999999733e-02 1.206460000000000032e-01 3.389119999999999910e-01 -3.186100000000000043e-02 1.198440000000000061e-01 3.392939999999999845e-01 -3.157900000000000290e-02 1.210880000000000012e-01 3.396819999999999840e-01 -3.030199999999999907e-02 1.215060000000000029e-01 3.388530000000000153e-01 -3.017399999999999943e-02 1.202550000000000008e-01 3.390909999999999758e-01 -3.077200000000000074e-02 1.206170000000000020e-01 3.397530000000000272e-01 -3.110699999999999923e-02 1.211129999999999984e-01 -3.407819999999999738e-01 3.102500000000000049e-02 -1.179739999999999955e-01 -3.400679999999999814e-01 3.025299999999999864e-02 -1.196440000000000003e-01 3.390670000000000073e-01 -3.136300000000000199e-02 1.204630000000000006e-01 -3.403599999999999959e-01 3.054300000000000070e-02 -1.181949999999999945e-01 -3.391730000000000023e-01 3.102200000000000096e-02 -1.197850000000000026e-01 3.390449999999999853e-01 -3.074899999999999856e-02 1.215910000000000046e-01 -3.413919999999999733e-01 3.130999999999999756e-02 -1.185309999999999975e-01 -3.398579999999999934e-01 2.999100000000000030e-02 -1.196060000000000040e-01 3.392990000000000173e-01 -2.974699999999999914e-02 1.216679999999999984e-01 -3.396529999999999827e-01 3.144099999999999673e-02 -1.200959999999999944e-01 3.388269999999999893e-01 -3.056999999999999995e-02 1.208010000000000056e-01 -3.397200000000000220e-01 3.029499999999999901e-02 -1.197860000000000036e-01 3.395980000000000110e-01 -3.100199999999999831e-02 1.208229999999999998e-01 -3.395299999999999985e-01 3.018200000000000049e-02 -1.196699999999999986e-01 3.385569999999999968e-01 -3.032299999999999926e-02 1.209999999999999964e-01 3.392379999999999840e-01 -3.064400000000000110e-02 1.208570000000000061e-01 3.389079999999999870e-01 -3.006100000000000091e-02 1.207310000000000050e-01 3.388900000000000245e-01 -3.041500000000000106e-02 1.212600000000000067e-01 3.393019999999999925e-01 -3.042100000000000012e-02 1.212870000000000059e-01 3.385799999999999921e-01 -2.978700000000000098e-02 1.213680000000000037e-01 -3.403530000000000166e-01 3.147599999999999704e-02 -1.192600000000000049e-01 -3.405009999999999981e-01 3.020700000000000121e-02 -1.192970000000000003e-01 -3.407609999999999806e-01 3.049699999999999980e-02 -1.190210000000000018e-01 3.381819999999999826e-01 -3.137700000000000211e-02 1.205750000000000016e-01 3.396649999999999947e-01 -3.122199999999999975e-02 1.205240000000000061e-01 -3.403070000000000261e-01 3.017399999999999943e-02 -1.194589999999999957e-01 -3.408809999999999896e-01 3.075200000000000156e-02 -1.202349999999999947e-01 3.390349999999999753e-01 -3.112499999999999989e-02 1.214849999999999958e-01 3.400940000000000074e-01 -3.055000000000000077e-02 1.215650000000000064e-01 -3.406819999999999848e-01 3.102099999999999996e-02 -1.194169999999999954e-01 -3.400610000000000022e-01 3.025699999999999917e-02 -1.193049999999999944e-01 3.394010000000000082e-01 -3.145400000000000279e-02 1.212209999999999954e-01 3.392979999999999885e-01 -3.062700000000000145e-02 1.204139999999999933e-01 -3.400250000000000217e-01 3.157200000000000284e-02 -1.199810000000000043e-01 -3.395750000000000157e-01 2.978899999999999951e-02 -1.195679999999999937e-01 -3.401199999999999779e-01 3.141100000000000142e-02 -1.190500000000000030e-01 -3.407080000000000108e-01 3.077500000000000027e-02 -1.191030000000000005e-01 -3.410130000000000106e-01 3.081499999999999864e-02 -1.189579999999999943e-01 -3.404820000000000069e-01 3.052799999999999958e-02 -1.191399999999999959e-01 -3.407379999999999853e-01 3.071099999999999872e-02 -1.194680000000000047e-01 -3.405230000000000201e-01 3.055599999999999983e-02 -1.187109999999999971e-01 -3.401350000000000207e-01 3.050699999999999940e-02 -1.189859999999999945e-01 -3.402519999999999989e-01 3.177399999999999669e-02 -1.195620000000000016e-01 -3.395509999999999917e-01 3.033900000000000138e-02 -1.196409999999999973e-01 3.391480000000000050e-01 -3.074500000000000149e-02 1.210829999999999962e-01 3.394670000000000187e-01 -3.107299999999999993e-02 1.208179999999999948e-01 3.395909999999999762e-01 -3.102099999999999996e-02 1.208169999999999938e-01 3.386379999999999946e-01 -3.126700000000000312e-02 1.203810000000000019e-01 3.399380000000000179e-01 -3.182700000000000112e-02 1.205539999999999945e-01 3.389010000000000078e-01 -3.051299999999999846e-02 1.213960000000000039e-01 3.398889999999999967e-01 -3.060600000000000126e-02 1.215249999999999941e-01 3.391640000000000210e-01 -3.082199999999999870e-02 1.209719999999999962e-01 3.391770000000000063e-01 -3.061699999999999838e-02 1.201679999999999970e-01 -3.395650000000000057e-01 3.100199999999999831e-02 -1.191220000000000057e-01 -3.407430000000000181e-01 3.046700000000000103e-02 -1.191959999999999964e-01 -3.410989999999999855e-01 3.054700000000000124e-02 -1.186080000000000051e-01 3.385150000000000103e-01 -3.134399999999999686e-02 1.207740000000000063e-01 3.397689999999999877e-01 -3.136699999999999905e-02 1.209410000000000068e-01 -3.401339999999999919e-01 3.039400000000000088e-02 -1.190579999999999972e-01 -3.407640000000000113e-01 3.072599999999999984e-02 -1.196939999999999948e-01 3.386480000000000046e-01 -3.071099999999999872e-02 1.215689999999999965e-01 3.397600000000000064e-01 -3.022800000000000140e-02 1.217040000000000066e-01 -3.407689999999999886e-01 3.076999999999999874e-02 -1.185829999999999940e-01 -3.401310000000000167e-01 3.018699999999999856e-02 -1.192929999999999963e-01 3.395639999999999770e-01 -3.090100000000000138e-02 1.210119999999999946e-01 3.396970000000000267e-01 -3.115599999999999967e-02 1.203960000000000030e-01 -3.403180000000000094e-01 3.162399999999999933e-02 -1.192669999999999980e-01 -3.395219999999999905e-01 2.992200000000000068e-02 -1.193619999999999959e-01 3.395119999999999805e-01 -3.063000000000000098e-02 1.207209999999999950e-01 3.391440000000000010e-01 -3.144600000000000173e-02 1.211180000000000034e-01 3.395329999999999737e-01 -3.114300000000000054e-02 1.209110000000000046e-01 3.393050000000000233e-01 -3.033200000000000132e-02 1.205839999999999967e-01 3.393399999999999750e-01 -3.129500000000000337e-02 1.209820000000000062e-01 3.397450000000000192e-01 -3.139499999999999930e-02 1.211330000000000046e-01 2.096912000000000109e+00 1.104152000000000022e+00 -1.989394000000000107e+00 1.069999999999999988e-04 -1.263999999999999933e-03 6.620000000000000450e-04 2.096119999999999983e+00 1.103971999999999953e+00 -1.989386000000000099e+00 -7.600000000000000418e-05 -1.765999999999999992e-03 1.405999999999999915e-03 -2.095914000000000055e+00 -1.101140000000000008e+00 1.989357000000000042e+00 2.097049999999999859e+00 1.101685000000000025e+00 -1.993106999999999962e+00 2.096661000000000108e+00 1.103261999999999965e+00 -1.992291999999999952e+00 5.999999999999999474e-04 -3.429999999999999889e-04 -7.029999999999999574e-04 -2.095915000000000195e+00 -1.101657000000000108e+00 1.987767999999999979e+00 -3.499999999999999693e-05 -1.168999999999999900e-03 5.800000000000000034e-04 -2.096524000000000054e+00 -1.100618000000000096e+00 1.989630000000000010e+00 2.096493000000000162e+00 1.101919000000000093e+00 -1.992701000000000056e+00 2.096744999999999859e+00 1.103039000000000103e+00 -1.991832999999999965e+00 6.470000000000000057e-04 2.950000000000000148e-04 -8.480000000000000124e-04 -2.095949000000000062e+00 -1.101428000000000074e+00 1.987878000000000034e+00 -1.800000000000000046e-05 -4.629999999999999784e-04 4.400000000000000157e-04 -2.096464000000000105e+00 -1.100805000000000033e+00 1.989230999999999971e+00 2.096929999999999961e+00 1.101607999999999921e+00 -1.992934999999999901e+00 2.096147000000000205e+00 1.103058000000000094e+00 -1.991165000000000074e+00 6.809999999999999647e-04 -4.300000000000000165e-05 -9.909999999999999105e-04 -2.095270000000000188e+00 -1.101205999999999907e+00 1.986981000000000108e+00 6.380000000000000037e-04 1.230000000000000082e-04 1.771000000000000005e-03 2.096924000000000010e+00 1.102848999999999968e+00 -1.991559999999999997e+00 -2.095698000000000061e+00 -1.100988999999999995e+00 1.987764000000000086e+00 -4.339999999999999782e-04 2.400000000000000061e-04 1.869000000000000002e-03 2.096258999999999872e+00 1.102832000000000034e+00 -1.991460999999999926e+00 -2.096125999999999934e+00 -1.101312000000000069e+00 1.987943999999999933e+00 -3.370000000000000057e-04 -6.000000000000000152e-05 1.343999999999999926e-03 2.096150000000000180e+00 1.103010999999999964e+00 -1.990987999999999980e+00 -2.095806000000000058e+00 -1.101266000000000078e+00 1.988323000000000063e+00 -3.539999999999999853e-04 -8.170000000000000179e-04 2.684000000000000188e-03 2.097602000000000189e+00 1.102751999999999954e+00 -1.990826999999999902e+00 2.096518999999999799e+00 1.103004000000000095e+00 -1.990324999999999900e+00 5.320000000000000293e-04 -3.060000000000000111e-04 -4.079999999999999968e-04 -2.239999999999999966e-04 -2.149999999999999947e-04 2.023000000000000059e-03 2.097037999999999958e+00 1.102935999999999916e+00 -1.990536000000000083e+00 2.096740000000000048e+00 1.103183000000000025e+00 -1.990633000000000097e+00 1.015000000000000060e-03 3.499999999999999693e-05 -2.829999999999999942e-04 3.000000000000000076e-06 2.519999999999999996e-04 1.659000000000000101e-03 2.096938000000000191e+00 1.103019999999999889e+00 -1.990342000000000056e+00 2.095911000000000080e+00 1.103297999999999890e+00 -1.989421000000000106e+00 7.470000000000000511e-04 5.199999999999999680e-05 -7.569999999999999689e-04 4.889999999999999599e-04 -9.489999999999999738e-04 7.929999999999999766e-04 2.096667000000000058e+00 1.104303000000000035e+00 -1.989325999999999928e+00 -3.669999999999999760e-04 -9.120000000000000502e-04 1.170999999999999949e-03 -2.096020999999999912e+00 -1.102244999999999919e+00 1.988515999999999950e+00 2.096910999999999969e+00 1.102880000000000082e+00 -1.991714999999999902e+00 -3.199999999999999855e-05 -1.275000000000000092e-03 6.210000000000000242e-04 -2.096452999999999900e+00 -1.102214999999999945e+00 1.988820999999999950e+00 2.097081999999999891e+00 1.102290999999999910e+00 -1.991440000000000099e+00 -1.720000000000000066e-04 -1.030000000000000100e-03 1.562000000000000020e-03 -2.096166999999999891e+00 -1.101485000000000047e+00 1.988928999999999947e+00 -2.096105000000000107e+00 -1.101180999999999965e+00 1.987463999999999897e+00 -2.096325999999999912e+00 -1.101126999999999967e+00 1.989595999999999920e+00 -2.096058000000000199e+00 -1.100975999999999955e+00 1.987913999999999959e+00 -2.096261000000000152e+00 -1.101012000000000102e+00 1.988764999999999894e+00 -2.095048999999999939e+00 -1.100789000000000017e+00 1.987095000000000056e+00 -2.096051999999999804e+00 -1.102522999999999920e+00 1.986788999999999916e+00 -2.095924000000000120e+00 -1.102430999999999939e+00 1.987022000000000066e+00 -2.096516999999999964e+00 -1.102198000000000011e+00 1.987721999999999989e+00 2.889999999999999774e-04 -1.033000000000000064e-03 1.709000000000000016e-03 -2.095569999999999933e+00 -1.102629000000000081e+00 1.990021999999999958e+00 2.097262000000000182e+00 1.102289999999999992e+00 -1.991954000000000002e+00 2.096751999999999949e+00 1.103512999999999966e+00 -1.990944000000000047e+00 9.520000000000000467e-04 -1.312999999999999931e-03 -8.660000000000000163e-04 -2.095841000000000065e+00 -1.101431000000000049e+00 1.989146999999999998e+00 2.220000000000000022e-04 -7.640000000000000306e-04 1.479000000000000063e-03 -2.096239000000000186e+00 -1.101448999999999900e+00 1.990452000000000110e+00 2.097218999999999944e+00 1.102530999999999928e+00 -1.992297999999999902e+00 2.096945999999999977e+00 1.103962000000000110e+00 -1.991044999999999954e+00 1.026999999999999918e-03 -5.230000000000000274e-04 -7.910000000000000364e-04 -2.095467000000000191e+00 -1.101425000000000098e+00 1.988914999999999988e+00 1.320000000000000101e-04 6.700000000000000226e-05 1.276000000000000007e-03 -2.095946999999999782e+00 -1.101639999999999953e+00 1.989371000000000000e+00 2.096922000000000175e+00 1.102796000000000110e+00 -1.992404999999999982e+00 2.096349000000000018e+00 1.103927000000000103e+00 -1.990413999999999906e+00 1.015999999999999976e-03 -9.389999999999999476e-04 -1.193999999999999966e-03 -2.094737999999999989e+00 -1.101083999999999952e+00 1.988661999999999930e+00 2.709999999999999735e-04 -8.750000000000000182e-04 8.649999999999999920e-04 2.096388999999999836e+00 1.102872999999999992e+00 -1.991214000000000039e+00 -2.095388999999999946e+00 -1.102864999999999984e+00 1.988847999999999949e+00 4.180000000000000230e-04 4.130000000000000099e-04 -1.949999999999999965e-04 2.096445000000000114e+00 1.102170000000000094e+00 -1.990833999999999993e+00 2.097482999999999986e+00 1.101013000000000019e+00 -1.991150999999999893e+00 -2.095880999999999883e+00 -1.101472000000000007e+00 1.989992999999999901e+00 2.097011000000000180e+00 1.101779000000000064e+00 -1.990915999999999908e+00 5.860000000000000408e-04 -5.370000000000000424e-04 4.560000000000000251e-04 -2.096029999999999838e+00 -1.100913999999999948e+00 1.989913999999999961e+00 2.096690000000000165e+00 1.102033999999999958e+00 -1.991454999999999975e+00 4.350000000000000026e-04 -1.588999999999999918e-03 6.160000000000000111e-04 -2.096461000000000130e+00 -1.101318999999999937e+00 1.989816000000000029e+00 2.097299000000000024e+00 1.101920000000000011e+00 -1.991371999999999920e+00 9.009999999999999997e-04 -8.109999999999999805e-04 -1.000000000000000048e-04 2.310000000000000042e-04 -1.340999999999999961e-03 1.992999999999999980e-03 -2.096210999999999824e+00 -1.102373999999999965e+00 1.989227999999999996e+00 2.096919000000000199e+00 1.102850000000000108e+00 -1.991629000000000094e+00 2.096181000000000072e+00 1.103048999999999946e+00 -1.990302000000000016e+00 6.700000000000000226e-04 -4.809999999999999823e-04 -1.598999999999999944e-03 -2.095819999999999794e+00 -1.101968999999999976e+00 1.988809999999999967e+00 1.350000000000000017e-04 -1.453000000000000081e-03 1.531000000000000026e-03 -2.096624999999999961e+00 -1.102483000000000102e+00 1.990112000000000103e+00 2.097376000000000129e+00 1.102630999999999917e+00 -1.992065999999999892e+00 2.096459999999999990e+00 1.102861000000000091e+00 -1.991004999999999914e+00 9.920000000000000432e-04 -1.210000000000000002e-04 -1.410000000000000012e-03 -2.095845000000000180e+00 -1.102464000000000111e+00 1.988882000000000039e+00 -2.660000000000000146e-04 -1.814000000000000074e-03 1.830000000000000029e-03 -2.096366000000000174e+00 -1.102678999999999965e+00 1.989122999999999974e+00 2.096919999999999895e+00 1.102587999999999901e+00 -1.992110000000000047e+00 2.095982999999999929e+00 1.102953999999999990e+00 -1.990769999999999929e+00 6.849999999999999535e-04 1.900000000000000105e-05 -1.317999999999999944e-03 -2.095501000000000058e+00 -1.102414000000000005e+00 1.989006000000000052e+00 2.096756000000000064e+00 1.102097000000000104e+00 -1.990820000000000034e+00 6.579999999999999478e-04 -7.140000000000000079e-04 -1.364999999999999894e-03 2.096862999999999921e+00 1.102085999999999899e+00 -1.991233999999999948e+00 7.010000000000000172e-04 -1.489000000000000089e-03 -1.178000000000000011e-03 2.097726000000000202e+00 1.101990999999999943e+00 -1.991438000000000041e+00 9.730000000000000151e-04 -1.204999999999999908e-03 -1.113999999999999973e-03 4.840000000000000010e-04 -1.472000000000000001e-03 1.141000000000000087e-03 2.097459999999999880e+00 1.101760999999999990e+00 -1.991841999999999890e+00 2.096314000000000011e+00 1.102403000000000022e+00 -1.990839000000000025e+00 4.240000000000000062e-04 3.770000000000000022e-04 -9.359999999999999831e-04 -3.110000000000000243e-04 -1.376999999999999969e-03 1.195000000000000099e-03 2.097157000000000160e+00 1.101693000000000033e+00 -1.991535999999999973e+00 2.095981000000000094e+00 1.102348000000000106e+00 -1.990812999999999944e+00 8.739999999999999939e-04 8.050000000000000515e-04 -8.440000000000000236e-04 -2.500000000000000120e-05 -2.174999999999999850e-03 1.619999999999999912e-03 -2.095981000000000094e+00 -1.101542000000000021e+00 1.989403000000000032e+00 8.260000000000000198e-04 8.999999999999999754e-04 -9.240000000000000166e-04 2.096750000000000114e+00 1.102508000000000044e+00 -1.990955999999999948e+00 2.097430999999999823e+00 1.102511000000000019e+00 -1.992259000000000002e+00 -2.096225000000000005e+00 -1.101302000000000003e+00 1.990698000000000079e+00 -3.399999999999999973e-05 -1.441999999999999922e-03 1.618000000000000081e-03 -2.096703000000000205e+00 -1.102098999999999940e+00 1.988680000000000003e+00 -2.095941999999999972e+00 -1.102346000000000048e+00 1.988161999999999985e+00 -2.096217000000000219e+00 -1.102654999999999941e+00 1.988509000000000082e+00 -2.096896000000000093e+00 -1.101582000000000061e+00 1.989241999999999955e+00 -2.096267000000000102e+00 -1.101436000000000082e+00 1.986755999999999966e+00 -2.097008000000000205e+00 -1.101426999999999934e+00 1.989475000000000104e+00 -2.095296999999999965e+00 -1.102328999999999892e+00 1.986920000000000019e+00 -2.096070000000000100e+00 -1.101825999999999972e+00 1.989069999999999894e+00 -2.095901000000000014e+00 -1.101941999999999977e+00 1.987959999999999949e+00 -2.096277999999999864e+00 -1.101620999999999961e+00 1.990043999999999924e+00 2.096541000000000210e+00 1.101609000000000060e+00 -1.990615000000000023e+00 5.720000000000000258e-04 -5.150000000000000498e-04 -7.829999999999999504e-04 -2.095731999999999928e+00 -1.101688999999999918e+00 1.990253000000000050e+00 2.097538000000000125e+00 1.101272000000000029e+00 -1.991584000000000021e+00 6.650000000000000095e-04 -1.322000000000000041e-03 -4.119999999999999856e-04 -2.096680999999999795e+00 -1.102124000000000104e+00 1.990218999999999960e+00 2.097580999999999918e+00 1.101307999999999954e+00 -1.992313000000000001e+00 5.230000000000000274e-04 -1.062000000000000010e-03 -5.360000000000000181e-04 1.969999999999999909e-04 -5.649999999999999641e-04 1.459000000000000010e-03 -2.096462999999999965e+00 -1.101399000000000017e+00 1.990712999999999955e+00 2.096907999999999994e+00 1.102958000000000105e+00 -1.991643000000000052e+00 2.095924000000000120e+00 1.102888000000000090e+00 -1.990636000000000072e+00 9.399999999999999719e-04 5.019999999999999506e-04 -1.541000000000000052e-03 -2.095512999999999959e+00 -1.101334000000000035e+00 1.988509000000000082e+00 1.469999999999999953e-04 -8.409999999999999507e-04 1.322000000000000041e-03 -2.096258000000000177e+00 -1.101183000000000023e+00 1.990485000000000060e+00 2.097541999999999796e+00 1.102683000000000080e+00 -1.991352999999999929e+00 2.096115000000000173e+00 1.102573000000000025e+00 -1.990253999999999968e+00 1.314999999999999980e-03 7.669999999999999951e-04 -8.270000000000000441e-04 -2.095460999999999796e+00 -1.102106999999999948e+00 1.989567000000000085e+00