9.313168981740828301e+00 0.000000000000000000e+00 -4.558668096735962848e-17 0.000000000000000000e+00 1.612249590000000055e+01 0.000000000000000000e+00 6.981558626315084171e-01 0.000000000000000000e+00 2.164225303857073257e+01
9.313168981740828301e+00 0.000000000000000000e+00 -4.558668096735962848e-17 0.000000000000000000e+00 1.612249590000000055e+01 0.000000000000000000e+00 6.981558626315084171e-01 0.000000000000000000e+00 2.164225303857073257e+01
9.313168981740828301e+00 0.000000000000000000e+00 -4.558668096735962848e-17 0.000000000000000000e+00 1.612249590000000055e+01 0.000000000000000000e+00 6.981558626315084171e-01 0.000000000000000000e+00 2.164225303857073257e+01
9.313168981740828301e+00 0.000000000000000000e+00 -4.558668096735962848e-17 0.000000000000000000e+00 1.612249590000000055e+01 0.000000000000000000e+00 6.981558626315084171e-01 0.000000000000000000e+00 2.164225303857073257e+01
9.313168981740828301e+00 0.000000000000000000e+00 -4.558668096735962848e-17 0.000000000000000000e+00 1.612249590000000055e+01 0.000000000000000000e+00 6.981558626315084171e-01 0.000000000000000000e+00 2.164225303857073257e+01
