9.438942864102790153e+00 1.612226000000000070e+01 4.872361345118304321e+00 1.677967524552287371e+00 2.686850000000000183e+00 4.872351911854055473e+00 1.062680088911482357e-01 3.582920000000000105e+00 2.313516518697523949e+00 1.658465140245732217e+00 8.958399999999999697e-01 2.313520339826236505e+00 3.230164655906871296e+00 1.612226000000000070e+01 4.872355732982767584e+00 4.782361787261455000e+00 2.686850000000000183e+00 4.872359554111480584e+00 3.210651954377897965e+00 3.582920000000000105e+00 2.313514488575635575e+00 4.762849085732482557e+00 8.958399999999999697e-01 2.313518309704347686e+00 6.334558596194487023e+00 1.612226000000000070e+01 4.872353380439327530e+00 7.886745732748204674e+00 2.686850000000000183e+00 4.872357523989591321e+00 6.315045894665513693e+00 3.582920000000000105e+00 2.313512136032194633e+00 7.867243026020098284e+00 8.958399999999999697e-01 2.313515957160907188e+00 9.438942864102790153e+00 5.373929999999999652e+00 4.872361345118304321e+00 1.677967524552287371e+00 8.061009999999999565e+00 4.872351911854055473e+00 1.062680088911482357e-01 8.957090000000000884e+00 2.313516518697523949e+00 1.658465140245732217e+00 6.270010000000000083e+00 2.313520339826236505e+00 3.230164655906871296e+00 5.373929999999999652e+00 4.872355732982767584e+00 4.782361787261455000e+00 8.061009999999999565e+00 4.872359554111480584e+00 3.210651954377897965e+00 8.957090000000000884e+00 2.313514488575635575e+00 4.762849085732482557e+00 6.270010000000000083e+00 2.313518309704347686e+00 6.334558596194487023e+00 5.373929999999999652e+00 4.872353380439327530e+00 7.886745732748204674e+00 8.061009999999999565e+00 4.872357523989591321e+00 6.315045894665513693e+00 8.957090000000000884e+00 2.313512136032194633e+00 7.867243026020098284e+00 6.270010000000000083e+00 2.313515957160907188e+00 9.438942864102790153e+00 1.074808999999999948e+01 4.872361345118304321e+00 1.677967524552287371e+00 1.343518000000000079e+01 4.872351911854055473e+00 1.062680088911482357e-01 1.433125000000000071e+01 2.313516518697523949e+00 1.658465140245732217e+00 1.164417000000000080e+01 2.313520339826236505e+00 3.230164655906871296e+00 1.074808999999999948e+01 4.872355732982767584e+00 4.782361787261455000e+00 1.343518000000000079e+01 4.872359554111480584e+00 3.210651954377897965e+00 1.433125000000000071e+01 2.313514488575635575e+00 4.762849085732482557e+00 1.164417000000000080e+01 2.313518309704347686e+00 6.334558596194487023e+00 1.074808999999999948e+01 4.872353380439327530e+00 7.886745732748204674e+00 1.343518000000000079e+01 4.872357523989591321e+00 6.315045894665513693e+00 1.433125000000000071e+01 2.313512136032194633e+00 7.867243026020098284e+00 1.164417000000000080e+01 2.313515957160907188e+00 9.671661259392346111e+00 1.612226000000000070e+01 1.208643869827954198e+01 1.910686242263396339e+00 2.686850000000000183e+00 1.208643925981615830e+01 3.389867266022572601e-01 3.582920000000000105e+00 9.527603866659628551e+00 1.891183857956841186e+00 8.958399999999999697e-01 9.527607687788339774e+00 3.462883373617980709e+00 1.612226000000000070e+01 1.208644308094487130e+01 5.015080182551011845e+00 2.686850000000000183e+00 1.208643690727271824e+01 3.443370672089006934e+00 3.582920000000000105e+00 9.527601836537739288e+00 4.995567803443591082e+00 8.958399999999999697e-01 9.527605657666450512e+00 6.567277313905596436e+00 1.612226000000000070e+01 1.208644072840143124e+01 8.119464450459313198e+00 2.686850000000000183e+00 1.208644487195169503e+01 6.547764612376622217e+00 3.582920000000000105e+00 9.527599483994299234e+00 8.099961743731206809e+00 8.958399999999999697e-01 9.527603305123012234e+00 9.671661259392346111e+00 5.373929999999999652e+00 1.208643869827954198e+01 1.910686242263396339e+00 8.061009999999999565e+00 1.208643925981615830e+01 3.389867266022572601e-01 8.957090000000000884e+00 9.527603866659628551e+00 1.891183857956841186e+00 6.270010000000000083e+00 9.527607687788339774e+00 3.462883373617980709e+00 5.373929999999999652e+00 1.208644308094487130e+01 5.015080182551011845e+00 8.061009999999999565e+00 1.208643690727271824e+01 3.443370672089006934e+00 8.957090000000000884e+00 9.527601836537739288e+00 4.995567803443591082e+00 6.270010000000000083e+00 9.527605657666450512e+00 6.567277313905596436e+00 5.373929999999999652e+00 1.208644072840143124e+01 8.119464450459313198e+00 8.061009999999999565e+00 1.208644487195169503e+01 6.547764612376622217e+00 8.957090000000000884e+00 9.527599483994299234e+00 8.099961743731206809e+00 6.270010000000000083e+00 9.527603305123012234e+00 9.671661259392346111e+00 1.074808999999999948e+01 1.208643869827954198e+01 1.910686242263396339e+00 1.343518000000000079e+01 1.208643925981615830e+01 3.389867266022572601e-01 1.433125000000000071e+01 9.527603866659628551e+00 1.891183857956841186e+00 1.164417000000000080e+01 9.527607687788339774e+00 3.462883373617980709e+00 1.074808999999999948e+01 1.208644308094487130e+01 5.015080182551011845e+00 1.343518000000000079e+01 1.208643690727271824e+01 3.443370672089006934e+00 1.433125000000000071e+01 9.527601836537739288e+00 4.995567803443591082e+00 1.164417000000000080e+01 9.527605657666450512e+00 6.567277313905596436e+00 1.074808999999999948e+01 1.208644072840143124e+01 8.119464450459313198e+00 1.343518000000000079e+01 1.208644487195169503e+01 6.547764612376622217e+00 1.433125000000000071e+01 9.527599483994299234e+00 8.099961743731206809e+00 1.164417000000000080e+01 9.527603305123012234e+00 9.904379977103454635e+00 1.612226000000000070e+01 1.930052604624164303e+01 2.143404959974505530e+00 2.686850000000000183e+00 1.930052660777826290e+01 5.717051218918139943e-01 3.582920000000000105e+00 1.674168121982086532e+01 2.123902253246397809e+00 8.958399999999999697e-01 1.674168504094957655e+01 3.695602091329089678e+00 1.612226000000000070e+01 1.930053042890697412e+01 5.247798900262120370e+00 2.686850000000000183e+00 1.930052425523481929e+01 3.676089389800116347e+00 3.582920000000000105e+00 1.674168918449984389e+01 5.228286198733147927e+00 8.958399999999999697e-01 1.674168301082768906e+01 6.799996031616705849e+00 1.612226000000000070e+01 1.930052807636353407e+01 8.352182845748870932e+00 2.686850000000000183e+00 1.930052222511293181e+01 6.780483330087731630e+00 3.582920000000000105e+00 1.674168683195640028e+01 8.332680461442315334e+00 8.958399999999999697e-01 1.674169065308511506e+01 9.904379977103454635e+00 5.373929999999999652e+00 1.930052604624164303e+01 2.143404959974505530e+00 8.061009999999999565e+00 1.930052660777826290e+01 5.717051218918139943e-01 8.957090000000000884e+00 1.674168121982086532e+01 2.123902253246397809e+00 6.270010000000000083e+00 1.674168504094957655e+01 3.695602091329089678e+00 5.373929999999999652e+00 1.930053042890697412e+01 5.247798900262120370e+00 8.061009999999999565e+00 1.930052425523481929e+01 3.676089389800116347e+00 8.957090000000000884e+00 1.674168918449984389e+01 5.228286198733147927e+00 6.270010000000000083e+00 1.674168301082768906e+01 6.799996031616705849e+00 5.373929999999999652e+00 1.930052807636353407e+01 8.352182845748870932e+00 8.061009999999999565e+00 1.930052222511293181e+01 6.780483330087731630e+00 8.957090000000000884e+00 1.674168683195640028e+01 8.332680461442315334e+00 6.270010000000000083e+00 1.674169065308511506e+01 9.904379977103454635e+00 1.074808999999999948e+01 1.930052604624164303e+01 2.143404959974505530e+00 1.343518000000000079e+01 1.930052660777826290e+01 5.717051218918139943e-01 1.433125000000000071e+01 1.674168121982086532e+01 2.123902253246397809e+00 1.164417000000000080e+01 1.674168504094957655e+01 3.695602091329089678e+00 1.074808999999999948e+01 1.930053042890697412e+01 5.247798900262120370e+00 1.343518000000000079e+01 1.930052425523481929e+01 3.676089389800116347e+00 1.433125000000000071e+01 1.674168918449984389e+01 5.228286198733147927e+00 1.164417000000000080e+01 1.674168301082768906e+01 6.799996031616705849e+00 1.074808999999999948e+01 1.930052807636353407e+01 8.352182845748870932e+00 1.343518000000000079e+01 1.930052222511293181e+01 6.780483330087731630e+00 1.433125000000000071e+01 1.674168683195640028e+01 8.332680461442315334e+00 1.164417000000000080e+01 1.674169065308511506e+01 1.160233923909779058e-01 1.791349999999999998e+00 3.592907156498493570e+00 9.444181688993657176e+00 3.583480000000000221e+00 5.921798050362485633e+00 1.653275966937640229e+00 2.686280000000000001e+00 1.264072027673427856e+00 1.010791580046085242e-01 1.612170000000000059e+01 1.264078201345581132e+00 1.668220201324009277e+00 4.478430000000000355e+00 3.592900982826340517e+00 1.683206349443155059e+00 8.963999999999999746e-01 5.921788617098236784e+00 3.220407660299279939e+00 1.791349999999999998e+00 3.592915121177470361e+00 3.235403480797738762e+00 3.583480000000000221e+00 5.921792438226949784e+00 4.757669907225255734e+00 2.686280000000000001e+00 1.264069675129987136e+00 3.205473098292224154e+00 1.612170000000000059e+01 1.264075848802140412e+00 4.772604469232311963e+00 4.478430000000000355e+00 3.592908947505317308e+00 4.787600612152322022e+00 8.963999999999999746e-01 5.921796259355661896e+00 6.324801600586895667e+00 1.791349999999999998e+00 3.592912768634029863e+00 6.339797743506906613e+00 3.583480000000000221e+00 5.921800080484374007e+00 7.862054175133557976e+00 2.686280000000000001e+00 1.264077639808964371e+00 6.309867038579840326e+00 1.612170000000000059e+01 1.264073496258699691e+00 7.876998409519927691e+00 4.478430000000000355e+00 3.592906594961876365e+00 7.891984557639072584e+00 8.963999999999999746e-01 5.921794229233772633e+00 1.160233923909779058e-01 7.165510000000000268e+00 3.592907156498493570e+00 9.444181688993657176e+00 8.957649999999999224e+00 5.921798050362485633e+00 1.653275966937640229e+00 8.060449999999999449e+00 1.264072027673427856e+00 1.010791580046085242e-01 5.373370000000000424e+00 1.264078201345581132e+00 1.668220201324009277e+00 9.852589999999999293e+00 3.592900982826340517e+00 1.683206349443155059e+00 6.270570000000000199e+00 5.921788617098236784e+00 3.220407660299279939e+00 7.165510000000000268e+00 3.592915121177470361e+00 3.235403480797738762e+00 8.957649999999999224e+00 5.921792438226949784e+00 4.757669907225255734e+00 8.060449999999999449e+00 1.264069675129987136e+00 3.205473098292224154e+00 5.373370000000000424e+00 1.264075848802140412e+00 4.772604469232311963e+00 9.852589999999999293e+00 3.592908947505317308e+00 4.787600612152322022e+00 6.270570000000000199e+00 5.921796259355661896e+00 6.324801600586895667e+00 7.165510000000000268e+00 3.592912768634029863e+00 6.339797743506906613e+00 8.957649999999999224e+00 5.921800080484374007e+00 7.862054175133557976e+00 8.060449999999999449e+00 1.264077639808964371e+00 6.309867038579840326e+00 5.373370000000000424e+00 1.264073496258699691e+00 7.876998409519927691e+00 9.852589999999999293e+00 3.592906594961876365e+00 7.891984557639072584e+00 6.270570000000000199e+00 5.921794229233772633e+00 1.160233923909779058e-01 1.253968000000000060e+01 3.592907156498493570e+00 9.444181688993657176e+00 1.433181000000000083e+01 5.921798050362485633e+00 1.653275966937640229e+00 1.343462000000000067e+01 1.264072027673427856e+00 1.010791580046085242e-01 1.074752999999999936e+01 1.264078201345581132e+00 1.668220201324009277e+00 1.522676000000000052e+01 3.592900982826340517e+00 1.683206349443155059e+00 1.164472999999999914e+01 5.921788617098236784e+00 3.220407660299279939e+00 1.253968000000000060e+01 3.592915121177470361e+00 3.235403480797738762e+00 1.433181000000000083e+01 5.921792438226949784e+00 4.757669907225255734e+00 1.343462000000000067e+01 1.264069675129987136e+00 3.205473098292224154e+00 1.074752999999999936e+01 1.264075848802140412e+00 4.772604469232311963e+00 1.522676000000000052e+01 3.592908947505317308e+00 4.787600612152322022e+00 1.164472999999999914e+01 5.921796259355661896e+00 6.324801600586895667e+00 1.253968000000000060e+01 3.592912768634029863e+00 6.339797743506906613e+00 1.433181000000000083e+01 5.921800080484374007e+00 7.862054175133557976e+00 1.343462000000000067e+01 1.264077639808964371e+00 6.309867038579840326e+00 1.074752999999999936e+01 1.264073496258699691e+00 7.876998409519927691e+00 1.522676000000000052e+01 3.592906594961876365e+00 7.891984557639072584e+00 1.164472999999999914e+01 5.921794229233772633e+00 3.487421101020869441e-01 1.791349999999999998e+00 1.080699450446059728e+01 9.676900406704765700e+00 3.583480000000000221e+00 1.313588539832458935e+01 1.885994684648749198e+00 2.686280000000000001e+00 8.478159375635531347e+00 3.337975532941652168e-01 1.612170000000000059e+01 8.478155554506818348e+00 1.900938919035118468e+00 4.478430000000000355e+00 1.080698833078844423e+01 1.915925067154264028e+00 8.963999999999999746e-01 1.313587596506034139e+01 3.453126055588836785e+00 1.791349999999999998e+00 1.080699247433870802e+01 3.468122198508847731e+00 3.583480000000000221e+00 1.313587978618905261e+01 4.990388624936364259e+00 2.686280000000000001e+00 8.478157023092091293e+00 3.438191816003333123e+00 1.612170000000000059e+01 8.478163196764242571e+00 5.005322864521868809e+00 4.478430000000000355e+00 1.080698630066655497e+01 5.020319007441878867e+00 8.963999999999999746e-01 1.313587361251689956e+01 6.557519995876452512e+00 1.791349999999999998e+00 1.080699012179526797e+01 6.572516138796463459e+00 3.583480000000000221e+00 1.313587743364561256e+01 8.094772570423113933e+00 2.686280000000000001e+00 8.478154992970202031e+00 6.542585756290948851e+00 1.612170000000000059e+01 8.478160844220802517e+00 8.109717127231036216e+00 4.478430000000000355e+00 1.080699394292397919e+01 8.124703275350181997e+00 8.963999999999999746e-01 1.313588157719587635e+01 3.487421101020869441e-01 7.165510000000000268e+00 1.080699450446059728e+01 9.676900406704765700e+00 8.957649999999999224e+00 1.313588539832458935e+01 1.885994684648749198e+00 8.060449999999999449e+00 8.478159375635531347e+00 3.337975532941652168e-01 5.373370000000000424e+00 8.478155554506818348e+00 1.900938919035118468e+00 9.852589999999999293e+00 1.080698833078844423e+01 1.915925067154264028e+00 6.270570000000000199e+00 1.313587596506034139e+01 3.453126055588836785e+00 7.165510000000000268e+00 1.080699247433870802e+01 3.468122198508847731e+00 8.957649999999999224e+00 1.313587978618905261e+01 4.990388624936364259e+00 8.060449999999999449e+00 8.478157023092091293e+00 3.438191816003333123e+00 5.373370000000000424e+00 8.478163196764242571e+00 5.005322864521868809e+00 9.852589999999999293e+00 1.080698630066655497e+01 5.020319007441878867e+00 6.270570000000000199e+00 1.313587361251689956e+01 6.557519995876452512e+00 7.165510000000000268e+00 1.080699012179526797e+01 6.572516138796463459e+00 8.957649999999999224e+00 1.313587743364561256e+01 8.094772570423113933e+00 8.060449999999999449e+00 8.478154992970202031e+00 6.542585756290948851e+00 5.373370000000000424e+00 8.478160844220802517e+00 8.109717127231036216e+00 9.852589999999999293e+00 1.080699394292397919e+01 8.124703275350181997e+00 6.270570000000000199e+00 1.313588157719587635e+01 3.487421101020869441e-01 1.253968000000000060e+01 1.080699450446059728e+01 9.676900406704765700e+00 1.433181000000000083e+01 1.313588539832458935e+01 1.885994684648749198e+00 1.343462000000000067e+01 8.478159375635531347e+00 3.337975532941652168e-01 1.074752999999999936e+01 8.478155554506818348e+00 1.900938919035118468e+00 1.522676000000000052e+01 1.080698833078844423e+01 1.915925067154264028e+00 1.164472999999999914e+01 1.313587596506034139e+01 3.453126055588836785e+00 1.253968000000000060e+01 1.080699247433870802e+01 3.468122198508847731e+00 1.433181000000000083e+01 1.313587978618905261e+01 4.990388624936364259e+00 1.343462000000000067e+01 8.478157023092091293e+00 3.438191816003333123e+00 1.074752999999999936e+01 8.478163196764242571e+00 5.005322864521868809e+00 1.522676000000000052e+01 1.080698630066655497e+01 5.020319007441878867e+00 1.164472999999999914e+01 1.313587361251689956e+01 6.557519995876452512e+00 1.253968000000000060e+01 1.080699012179526797e+01 6.572516138796463459e+00 1.433181000000000083e+01 1.313587743364561256e+01 8.094772570423113933e+00 1.343462000000000067e+01 8.478154992970202031e+00 6.542585756290948851e+00 1.074752999999999936e+01 8.478160844220802517e+00 8.109717127231036216e+00 1.522676000000000052e+01 1.080699394292397919e+01 8.124703275350181997e+00 1.164472999999999914e+01 1.313588157719587635e+01 5.814608278131959684e-01 1.791349999999999998e+00 1.802108185242270011e+01 9.909618801994321657e+00 3.583480000000000221e+00 2.034996275148582612e+01 2.118713402359858389e+00 2.686280000000000001e+00 1.569224672359763417e+01 5.665162710052742412e-01 1.612170000000000059e+01 1.569224290246892117e+01 2.133657636746227215e+00 4.478430000000000355e+00 1.802107567875054883e+01 2.148643784865372997e+00 8.963999999999999746e-01 2.034996331302244599e+01 3.685844773299945754e+00 1.791349999999999998e+00 1.802107982230081262e+01 3.700840916219957144e+00 3.583480000000000221e+00 2.034996713415115721e+01 5.223107342647473672e+00 2.686280000000000001e+00 1.569224437105419412e+01 3.670910211292889969e+00 1.612170000000000059e+01 1.569224054992548290e+01 5.238041582232977333e+00 4.478430000000000355e+00 1.802107364862865779e+01 5.253037725152987392e+00 8.963999999999999746e-01 2.034996096047900238e+01 6.790238713587561037e+00 1.791349999999999998e+00 1.802107746975737257e+01 6.805234856507571983e+00 3.583480000000000221e+00 2.034996478160771716e+01 8.327491288134224234e+00 2.686280000000000001e+00 1.569224234093230486e+01 6.775304151580505696e+00 1.612170000000000059e+01 1.569223819738204106e+01 8.342435522520593949e+00 4.478430000000000355e+00 1.802107129608521774e+01 8.357421670639737954e+00 8.963999999999999746e-01 2.034995893035711489e+01 5.814608278131959684e-01 7.165510000000000268e+00 1.802108185242270011e+01 9.909618801994321657e+00 8.957649999999999224e+00 2.034996275148582612e+01 2.118713402359858389e+00 8.060449999999999449e+00 1.569224672359763417e+01 5.665162710052742412e-01 5.373370000000000424e+00 1.569224290246892117e+01 2.133657636746227215e+00 9.852589999999999293e+00 1.802107567875054883e+01 2.148643784865372997e+00 6.270570000000000199e+00 2.034996331302244599e+01 3.685844773299945754e+00 7.165510000000000268e+00 1.802107982230081262e+01 3.700840916219957144e+00 8.957649999999999224e+00 2.034996713415115721e+01 5.223107342647473672e+00 8.060449999999999449e+00 1.569224437105419412e+01 3.670910211292889969e+00 5.373370000000000424e+00 1.569224054992548290e+01 5.238041582232977333e+00 9.852589999999999293e+00 1.802107364862865779e+01 5.253037725152987392e+00 6.270570000000000199e+00 2.034996096047900238e+01 6.790238713587561037e+00 7.165510000000000268e+00 1.802107746975737257e+01 6.805234856507571983e+00 8.957649999999999224e+00 2.034996478160771716e+01 8.327491288134224234e+00 8.060449999999999449e+00 1.569224234093230486e+01 6.775304151580505696e+00 5.373370000000000424e+00 1.569223819738204106e+01 8.342435522520593949e+00 9.852589999999999293e+00 1.802107129608521774e+01 8.357421670639737954e+00 6.270570000000000199e+00 2.034995893035711489e+01 5.814608278131959684e-01 1.253968000000000060e+01 1.802108185242270011e+01 9.909618801994321657e+00 1.433181000000000083e+01 2.034996275148582612e+01 2.118713402359858389e+00 1.343462000000000067e+01 1.569224672359763417e+01 5.665162710052742412e-01 1.074752999999999936e+01 1.569224290246892117e+01 2.133657636746227215e+00 1.522676000000000052e+01 1.802107567875054883e+01 2.148643784865372997e+00 1.164472999999999914e+01 2.034996331302244599e+01 3.685844773299945754e+00 1.253968000000000060e+01 1.802107982230081262e+01 3.700840916219957144e+00 1.433181000000000083e+01 2.034996713415115721e+01 5.223107342647473672e+00 1.343462000000000067e+01 1.569224437105419412e+01 3.670910211292889969e+00 1.074752999999999936e+01 1.569224054992548290e+01 5.238041582232977333e+00 1.522676000000000052e+01 1.802107364862865779e+01 5.253037725152987392e+00 1.164472999999999914e+01 2.034996096047900238e+01 6.790238713587561037e+00 1.253968000000000060e+01 1.802107746975737257e+01 6.805234856507571983e+00 1.433181000000000083e+01 2.034996478160771716e+01 8.327491288134224234e+00 1.343462000000000067e+01 1.569224234093230486e+01 6.775304151580505696e+00 1.074752999999999936e+01 1.569223819738204106e+01 8.342435522520593949e+00 1.522676000000000052e+01 1.802107129608521774e+01 8.357421670639737954e+00 1.164472999999999914e+01 2.034995893035711489e+01