-2.825160305540000081e+03
-2.825123088220000227e+03
-2.825012192709999908e+03
-2.824828541570000198e+03
-2.824573447549999855e+03
