1.719461160904085448e-03 3.390000000000000001e-04 8.239892694339985644e-04 1.269501695747178322e-03 -1.200000000000000030e-05 8.635174836070423849e-04 -1.439026912385617078e-03 -6.009999999999999717e-04 -1.435348928111181577e-03 -6.552728059616162769e-04 -9.999999999999999547e-07 -8.663230054472695948e-04 1.720944807831043455e-03 3.809999999999999910e-04 1.459271725347740904e-03 2.417549704946024471e-03 2.849999999999999886e-04 8.775092159717700398e-04 -1.481198021166098798e-03 -3.789999999999999966e-04 -8.506852661787637137e-04 -1.704791300981232331e-03 3.699999999999999811e-05 -7.414193281124507266e-04 2.039810663086351859e-03 2.990000000000000036e-04 8.296634611450698447e-04 1.287750728882216785e-03 -1.869999999999999917e-04 1.398207087760364566e-03 -9.484747608723054137e-04 -9.100000000000000016e-04 -4.336445871773605639e-04 -1.460596139192715066e-03 -5.980000000000000072e-04 -1.204533485701138416e-03 2.567568471121020775e-03 -3.399999999999999973e-05 9.066874577853536663e-04 1.995092023158683264e-03 2.579999999999999828e-04 8.701263236614506513e-04 -1.636375398550038484e-03 3.609999999999999928e-04 -8.846996976489834722e-04 3.337286870488026568e-04 3.300000000000000253e-05 -1.099331689455317323e-03 1.299873378365045892e-03 4.029999999999999837e-04 1.308769727728236604e-03 1.737290645137170306e-03 3.209999999999999963e-04 8.804437598841141415e-04 -1.532655538792974384e-03 -1.649999999999999991e-04 -1.329274990138315385e-03 -2.597617545107401473e-03 -7.999999999999999638e-06 -1.124832027171256653e-03 1.270855892992469021e-03 4.020000000000000136e-04 9.365117720810103505e-04 1.744513262067226697e-03 3.299999999999999982e-04 1.538553047012537539e-03 -6.396037064825770653e-04 3.649999999999999816e-04 -1.062930429827723669e-03 -1.400047028656271767e-03 1.569999999999999944e-04 -1.250509623134002206e-03 2.569502626276511971e-03 2.489999999999999809e-04 5.324305152394143625e-04 1.256830608918262831e-03 4.119999999999999856e-04 5.637701841053220295e-04 -2.502376998017682118e-03 -4.640000000000000027e-04 -1.398044834685931680e-03 -8.840892347473497176e-04 -7.529999999999999801e-04 -8.259244668877692387e-04 1.152401448471717825e-03 -2.310000000000000042e-04 1.017373039528907076e-03 2.450435473903988040e-03 1.019999999999999992e-04 4.702371616885876260e-04 -1.472654625072245373e-03 -3.370000000000000057e-04 -1.485290663558256090e-03 -1.533526504593756218e-03 -5.649999999999999641e-04 -1.852518949891864431e-03 1.310222121347048938e-03 -1.240000000000000054e-04 4.820062164877536061e-04 1.367966672164753301e-03 4.889999999999999599e-04 9.383816834564125174e-04 2.545438513193264813e-04 -3.519999999999999908e-04 -1.351909918506231240e-03 -1.460305986521234778e-03 -3.310000000000000225e-04 -1.226554289760646392e-03 1.815733697491562701e-03 5.820000000000000520e-04 8.619049482359519235e-04 1.309996693516402196e-03 1.579999999999999916e-04 7.851711042671486070e-04 -1.554709066068456734e-03 -5.370000000000000424e-04 -1.888854869989896020e-03 -6.376048264862516730e-04 2.460000000000000164e-04 -1.156043288653775623e-03 1.659815258323655033e-03 5.699999999999999772e-04 1.394208846706969590e-03 2.493929259365645478e-03 5.810000000000000277e-04 7.950036787838930981e-04 -1.428999735736821101e-03 -1.420000000000000092e-04 -1.279591245384281099e-03 -1.645918996321566168e-03 2.959999999999999849e-04 -1.087497428754573715e-03 2.078564611198709458e-03 5.039999999999999992e-04 7.283612819695718926e-04 1.220269581696747365e-03 1.000000000000000082e-05 1.260311131421779128e-03 -8.666145478497884642e-04 -7.380000000000000492e-04 -9.355448815824427477e-04 -1.487195516374175373e-03 -1.659999999999999963e-04 -1.563862684533571818e-03 2.516820574890788528e-03 -7.299999999999999903e-05 7.912636689539104436e-04 2.004570896089377836e-03 7.100000000000000462e-05 7.917799710471535440e-04 -1.662007323995396335e-03 -3.600000000000000091e-05 -9.969316200149644456e-04 4.059810852452993462e-04 -3.130000000000000187e-04 -1.495867426753804503e-03 1.372383954333760911e-03 3.190000000000000019e-04 1.199374954668984937e-03 1.742965077378613465e-03 -2.000000000000000164e-05 8.392393812486186998e-04 -1.512923981206047404e-03 -7.020000000000000415e-04 -1.461980173289516294e-03 -2.552060983302088283e-03 -4.650000000000000270e-04 -1.573534155176549909e-03 1.253574471947114556e-03 3.629999999999999872e-04 8.350161934253212811e-04 1.736259430681722253e-03 9.500000000000000523e-05 1.468782893884859435e-03 -6.356381351939632308e-04 -1.430000000000000064e-04 -1.188123377889325647e-03 -1.569443196496996635e-03 -2.570000000000000127e-04 -1.725294772776318894e-03 2.538647712214136404e-03 1.749999999999999982e-04 5.374279423978014407e-04 1.259538816329666125e-03 4.139999999999999800e-04 4.926458871835470016e-04 -2.517240310871920236e-03 -2.919999999999999961e-04 -1.486611656526827790e-03 -9.663367812421864338e-04 -7.540000000000000044e-04 -8.322759309378656911e-04 1.237292798244286722e-03 -1.869999999999999917e-04 1.043649620999702625e-03 2.537777120571710343e-03 -7.799999999999999859e-05 4.484097303836740421e-04 -1.459596979813319959e-03 -1.440000000000000036e-04 -1.576759225918731048e-03 -1.433094783432699347e-03 -4.629999999999999784e-04 -1.747702589600983987e-03 1.279206023234115983e-03 -5.300000000000000078e-05 5.130223680518805531e-04 1.332597909821258298e-03 4.000000000000000192e-04 8.654841481737339396e-04 2.967798452942231797e-04 -2.239999999999999966e-04 -1.469332747687581179e-03 -1.451213939276520086e-03 -3.130000000000000187e-04 -1.223846028898049323e-03 1.705177966313629803e-03 4.000000000000000327e-05 4.742679656043759760e-04 1.216141730608103974e-03 -2.139999999999999975e-04 1.398616855093855519e-04 -1.504638228372474559e-03 -6.080000000000000335e-04 -1.763404038137641365e-03 -7.237856486632777238e-04 1.630000000000000047e-04 -9.741700748786521124e-04 1.770305917227994524e-03 8.700000000000000051e-05 1.097492122717766546e-03 2.516916766844542845e-03 1.210000000000000002e-04 1.739396124429819516e-04 -1.412298620034427212e-03 -4.510000000000000120e-04 -1.134054058609576402e-03 -1.653076273722060494e-03 2.100000000000000087e-04 -7.510917608769168740e-04 1.985032417275478783e-03 -6.200000000000000270e-05 4.962562869782809151e-04 1.208081806489131292e-03 -2.790000000000000054e-04 6.033625351560678715e-04 -9.618874439971260943e-04 -8.229999999999999469e-04 -7.873960535084461492e-04 -1.426452605473587645e-03 -3.860000000000000041e-04 -1.200632318546195586e-03 2.422481952928430809e-03 6.200000000000000270e-05 9.994592405924663462e-05 1.930125363197263480e-03 5.400000000000000069e-04 3.449479414964406673e-04 -1.731583703484527222e-03 -3.800000000000000209e-05 -6.104874100477502554e-04 1.915766593173635869e-04 -1.810000000000000085e-04 -1.287846413049630132e-03 1.403012585346389771e-03 4.400000000000000157e-04 5.050264204570286764e-04 1.782105610646577765e-03 5.039999999999999992e-04 3.777374650494556558e-04 -1.480359965660469875e-03 -4.989999999999999861e-04 -1.103843907475025648e-03 -2.431961948334194004e-03 -2.629999999999999959e-04 -1.324276814663215241e-03 1.314864590816331412e-03 5.259999999999999919e-04 1.606894763741597567e-04 1.766920571105550820e-03 5.540000000000000219e-04 1.085595088144762502e-03 -6.691687205309459303e-04 -8.399999999999999535e-05 -7.698248004987738287e-04 -1.483165300421518656e-03 -1.299999999999999886e-04 -1.500959923390876626e-03 2.383051240263389658e-03 4.519999999999999821e-04 5.524525194793873922e-04 1.172003770181752596e-03 3.359999999999999814e-04 5.705086876461725950e-04 -2.624409894159502373e-03 -6.799999999999999946e-05 -9.318678594294957374e-04 -8.920200833430115160e-04 -8.679999999999999565e-04 -2.343611975407341921e-04 1.332920438275953749e-03 -2.099999999999999884e-05 9.995434483934348847e-04 2.640659192079114828e-03 -9.299999999999999727e-05 5.671543275759056892e-04 -1.380669840795318085e-03 5.099999999999999960e-05 -1.053031714013510272e-03 -1.555353294484344449e-03 -5.599999999999999509e-04 -1.195473600434863786e-03 1.312575798678897610e-03 2.320000000000000014e-04 5.549682628064906299e-04 1.247513267470885942e-03 3.099999999999999999e-04 1.019307435214770801e-03 2.950393836004882664e-04 -6.099999999999999872e-05 -8.099338010755224165e-04 -1.471525321145663451e-03 -2.579999999999999828e-04 -4.888089905342906305e-04 2.641858058179568009e-04 -4.569999999999999952e-04 7.458698680093712183e-04 3.908603696611526353e-03 -4.749999999999999990e-04 -9.721075925165623827e-03 -5.149571592765784731e-03 -4.510000000000000120e-04 9.152791946230377437e-03 -4.573291345528522622e-03 -4.840000000000000010e-04 8.407824110250755947e-03 3.838655858654630749e-04 -1.033999999999999980e-03 8.580694680433308043e-04 3.621075479076761843e-03 -6.579999999999999478e-04 -1.013602113133299509e-02 4.386434842435768316e-04 -1.600000000000000131e-04 7.882670193092280921e-04 4.404539967341219997e-03 -7.829999999999999504e-04 -8.924651907838971124e-03 -4.712412289961102896e-03 -1.103999999999999947e-03 8.685454012855260697e-03 -4.533440950333543322e-03 -4.989999999999999861e-04 8.588633252726471726e-03 -2.125013904526053103e-04 -4.589999999999999896e-04 1.135441834289942524e-03 3.976923113107399578e-03 -3.040000000000000167e-04 -9.588209611415059522e-03 -1.550767489811012443e-05 -1.269999999999999970e-04 4.497338235214853376e-04 3.668535263436583423e-03 -1.659999999999999963e-04 -9.440189564882808804e-03 -4.415631188563826602e-03 -6.819999999999999890e-04 8.673879132578596329e-03 -4.949837801803012340e-03 -5.310000000000000050e-04 7.962733370887282308e-03 2.895348212285921922e-05 -2.719999999999999979e-04 9.285492425676525720e-04 4.411793543597856623e-03 -8.069999999999999916e-04 -9.754317132873436408e-03 -5.287045317929602047e-06 3.020000000000000223e-04 6.114883867677342513e-04 4.167082534051244104e-03 -5.680000000000000370e-04 -9.276178531831146337e-03 -4.958348528132083648e-03 1.541999999999999968e-03 9.094596245769814152e-03 -4.634065563188449581e-03 1.016999999999999892e-03 9.129158633525376321e-03 -9.640297511622936640e-06 8.869999999999999846e-04 -1.747800465267342648e-04 3.840865467403311966e-03 -7.380000000000000492e-04 -8.874451727363711143e-03 8.556912989793502599e-05 -3.399999999999999973e-05 8.536849090902978937e-04 4.358015258934285277e-03 -8.869999999999999846e-04 -9.529466302101913255e-03 -4.522510539003136813e-03 1.626000000000000058e-03 9.299650500132010042e-03 -4.449451926572289481e-03 6.970000000000000284e-04 9.114198514028655149e-03 8.073208502219827857e-05 4.589999999999999896e-04 -1.336724745337219858e-04 4.052046158868911202e-03 -5.429999999999999714e-04 -8.624130502630146522e-03 1.712069132994469207e-05 6.049999999999999606e-04 6.547884253164412520e-04 3.713189312151403670e-03 -8.899999999999999491e-04 -9.606715886926426445e-03 -4.395157473443459147e-03 1.528999999999999977e-03 9.246516737865893149e-03 -5.196095472679214747e-03 4.440000000000000045e-04 9.509477421961868779e-03 4.674665011120868164e-04 7.159999999999999481e-04 -2.408464942703883013e-05 4.245752163436949944e-03 -5.069999999999999637e-04 -8.264188863201909693e-03 1.587234799473906052e-04 5.399999999999999798e-05 -4.763652557789981035e-04 4.128489101849520948e-03 -3.899999999999999929e-04 -9.976298198024641586e-03 -4.972341783855834321e-03 5.109999999999999525e-04 8.474725139172441593e-03 -4.375749246079135325e-03 1.066000000000000107e-03 8.049268509339086580e-03 -4.958704501393870084e-05 7.100000000000000462e-05 7.563811847729699355e-05 3.734113241518738878e-03 -2.100000000000000087e-04 -1.038479505332264366e-02 -2.138572981360971586e-04 1.100000000000000039e-04 -9.225844438499538084e-04 4.115625176777948542e-03 -3.060000000000000111e-04 -9.568671506759518844e-03 -4.548820832536992764e-03 1.031999999999999931e-03 7.677655503698864112e-03 -4.228728759810231400e-03 1.534999999999999906e-03 8.264640226649543064e-03 -1.152950072896982502e-04 1.800000000000000046e-05 -1.623670572932466027e-04 3.956449344535838998e-03 -5.699999999999999772e-04 -1.022287946637941668e-02 5.419430735075712576e-04 -5.860000000000000408e-04 -9.719787575236236597e-04 3.837930549332611765e-03 -4.519999999999999821e-04 -9.988936534911986576e-03 -4.066749116166096419e-03 7.470000000000000511e-04 7.548045086389076203e-03 -4.893028166584613946e-03 1.644999999999999978e-03 8.514188414699877527e-03 3.523331054824959774e-04 -3.519999999999999908e-04 2.837875662904567188e-04 4.638804785849021117e-03 -9.049999999999999885e-04 -9.416460808540765351e-03 1.378644357744706196e-04 5.050000000000000235e-04 7.689547433682861676e-04 4.075484682362683596e-03 -5.749999999999999903e-04 -9.665427595498666744e-03 -4.782343172804191626e-03 1.186999999999999904e-03 9.247000690901518299e-03 -4.435749464934344612e-03 7.969999999999999654e-04 9.011703428560811219e-03 5.343354749577211961e-04 -7.619999999999999820e-04 5.910791826834257837e-04 3.676918330698980726e-03 -4.319999999999999838e-04 -9.056260243023597778e-03 3.995347922468898906e-04 8.159999999999999936e-04 7.855265430169972940e-04 4.625844134311757512e-03 -9.120000000000000502e-04 -9.011832557535315660e-03 -4.220829111071522366e-03 4.989999999999999861e-04 8.881706345918626705e-03 -4.372137242748586755e-03 8.360000000000000460e-04 9.184742398705082050e-03 -8.897872722213874034e-06 -1.469999999999999953e-04 8.407239902970648718e-04 4.254811727996060840e-03 -7.399999999999999623e-05 -8.541625205972640592e-03 3.727131675808132203e-05 8.909999999999999734e-04 4.420281087749044113e-04 3.765871604067499642e-03 -2.269999999999999882e-04 -9.586403917094150906e-03 -4.248524427549264272e-03 8.670000000000000406e-04 8.829572197367050596e-03 -4.769318063682062049e-03 8.750000000000000182e-04 8.813355275230652652e-03 -2.263012466961647853e-04 -1.019999999999999992e-04 4.595353585348591475e-04 4.701514655297866704e-03 -5.919999999999999698e-04 -8.775149283403638548e-03 -8.263397129686233665e-05 -5.720000000000000258e-04 5.399450220047494848e-04 4.317682193532331424e-03 -7.029999999999999574e-04 -8.608687151688916919e-03 -4.829545420806120176e-03 1.999999999999999909e-06 8.093923092565843275e-03 -4.592442677949279579e-03 1.141000000000000087e-03 8.403439310767349749e-03 -9.491793845823299851e-05 1.050000000000000044e-04 5.003204822499665843e-04 4.065586928669958147e-03 -9.890000000000000787e-04 -9.289913235624324209e-03 3.384699408547382359e-04 -9.810000000000001011e-04 9.705916232575831620e-04 4.699064304951519958e-03 -1.182000000000000108e-03 -8.789077520304989372e-03 -4.301819587670714304e-03 0.000000000000000000e+00 8.480108857504871020e-03 -4.051369073609064134e-03 8.069999999999999916e-04 8.645119584447864824e-03 2.278498322687315186e-04 -2.519999999999999996e-04 7.050201798070115065e-04 4.333963653430384158e-03 -7.940000000000000009e-04 -9.065449577971538414e-03 -1.692616937468416282e-05 -4.479999999999999933e-04 5.918534487441123306e-04 3.958126925454926413e-03 -1.023999999999999954e-03 -9.023309882852784125e-03 -4.510936567396766836e-03 -4.399999999999999886e-05 8.541883357019263226e-03 -4.945548606310230452e-03 4.850000000000000253e-04 9.243260841425116753e-03 3.900235168073840270e-04 -1.500000000000000038e-05 6.767766665135555287e-04 4.245203886444444234e-03 -6.740000000000000114e-04 -8.467276773704577111e-03 -5.371353309714071002e-05 1.559999999999999972e-04 5.370110393299400197e-04 4.422176212447695605e-03 8.100000000000000375e-05 -8.626065299199963884e-03 -5.010450541430815606e-03 3.860000000000000041e-04 8.999226542979993360e-03 -4.533312355870975328e-03 -3.499999999999999964e-04 8.158405425333281266e-03 -1.127793441393855936e-04 6.610000000000000207e-04 8.150600097756545079e-04 4.138194418183543770e-03 -4.100000000000000047e-05 -9.179196694554190780e-03 -1.154558171818988752e-04 1.219999999999999974e-04 2.978774148519151301e-04 4.334738133295846021e-03 -4.300000000000000165e-05 -8.266058934930892860e-03 -4.595569926476295725e-03 9.899999999999999946e-04 8.585634865917991798e-03 -4.446551174899795143e-03 -1.900000000000000105e-05 7.994522853116203115e-03 -7.125278448195421124e-05 5.649999999999999641e-04 5.515841193359070785e-04 4.203321807860373530e-03 -3.069999999999999812e-04 -9.207311159049932220e-03 5.179565670028600001e-04 -5.810000000000000277e-04 2.074077980660605309e-04 4.269513509366982575e-03 -2.210000000000000050e-04 -8.830249282626895929e-03 -4.236917973257291366e-03 5.770000000000000389e-04 8.351949657887632397e-03 -5.032826329905025833e-03 1.730000000000000038e-04 8.615748611294013135e-03 1.889025381273768756e-04 8.200000000000000095e-05 9.243899778172819668e-04 4.811715722768261302e-03 -4.730000000000000046e-04 -8.398506581724200087e-03 1.812610404352886875e-04 -5.450000000000000200e-04 5.634486979489051897e-04 4.060975979764789787e-03 -1.093999999999999920e-03 -9.805032386064485919e-03 -5.022573645248792559e-03 1.190000000000000058e-04 8.561389780757109116e-03 -4.489753417958934796e-03 7.560000000000000530e-04 9.260574023564956125e-03 3.653582146046248499e-04 -9.240000000000000166e-04 -1.498578493804075189e-04 3.869689286039728737e-03 -1.962999999999999901e-03 -8.756319650944073205e-03 5.996563442915327355e-04 -2.860000000000000129e-04 5.999777235455619169e-04 4.784342480410067218e-03 -1.428000000000000016e-03 -8.843855552311086915e-03 -4.369719936325377682e-03 -3.719999999999999891e-04 8.267187410363970729e-03 -4.598213141790896165e-03 7.929999999999999766e-04 9.248064494944956832e-03 9.375791573544324791e-05 -2.730000000000000222e-04 2.701174804357273367e-04 4.296499792411212666e-03 -1.781999999999999947e-03 -8.458926322755766850e-03 -3.333718585679155510e-05 -7.700000000000000139e-05 3.622632082328396466e-04 3.873879750647051239e-03 -7.739999999999999485e-04 -9.804999983555672677e-03 -4.384873428576693301e-03 1.200000000000000030e-05 8.169625267744052427e-03 -4.943388702616928997e-03 5.900000000000000296e-04 8.938032509162143271e-03 -1.501799502255528513e-04 -6.999999999999999387e-05 -3.159517407843686878e-06 4.542468433091004926e-03 -2.200000000000000133e-03 -8.680972326552580456e-03 -1.504698890922580670e-04 5.540000000000000219e-04 2.669902853599051291e-04 4.014420205128888149e-03 7.470000000000000511e-04 -9.046136767518659499e-03 -5.017253395654144160e-03 3.359999999999999814e-04 9.067481368263016067e-03 -4.698838930572066773e-03 8.829999999999999958e-04 8.423880382848532300e-03 -5.544260968659930444e-06 8.109999999999999805e-04 1.440927916715583484e-03 3.978277363803884269e-03 -2.869999999999999830e-04 -9.453183073264032413e-03 3.102262137565069957e-04 2.229999999999999994e-04 5.602889400106894451e-04 4.594634503090649219e-03 3.789999999999999966e-04 -9.079861661006126405e-03 -4.529861509865388235e-03 4.690000000000000158e-04 9.350914163943548074e-03 -4.149866693065822933e-03 4.429999999999999802e-04 8.104014031933986367e-03 1.836801641990871373e-04 4.850000000000000253e-04 1.754990198627843232e-03 4.366172256951710538e-03 -1.410000000000000120e-04 -9.586759088588029526e-03 6.351573625043686899e-05 6.239999999999999887e-04 4.491856534313678822e-04 3.859597224196517455e-03 5.439999999999999957e-04 -9.379318166422042150e-03 -4.557363293234955454e-03 2.110000000000000059e-04 9.397825270426912042e-03 -4.933265040032813048e-03 1.769999999999999926e-04 8.817643508601947025e-03 4.419975770578748087e-04 7.690000000000000438e-04 1.946761192821288861e-03 4.264902587187411644e-03 -4.399999999999999886e-05 -9.314352308228527472e-03 -9.133745569180016784e-05 1.079999999999999960e-04 2.472230262169717099e-03 4.016871330517546475e-03 -1.214000000000000018e-03 -8.132740910299933804e-03 -5.287886109159237527e-03 1.128000000000000096e-03 9.889634598738254734e-03 -4.578900571868388045e-03 1.039999999999999936e-04 9.288462819699680462e-03 -1.137135915987690511e-04 2.900000000000000017e-05 1.685542707582844907e-03 3.687816232618186443e-03 5.680000000000000370e-04 -8.656403724089918247e-03 -2.024588198599995095e-05 1.610000000000000103e-04 1.915648742401019613e-03 4.357855758596333208e-03 -9.650000000000000374e-04 -7.549431712868775839e-03 -4.830447051951916593e-03 1.595999999999999979e-03 9.399631018199015517e-03 -4.462831913206732025e-03 6.099999999999999737e-04 9.288720650039140880e-03 3.043715577541407282e-05 -1.700000000000000122e-04 1.594847823319925188e-03 4.174885295970679963e-03 3.350000000000000113e-04 -8.848207601852920226e-03 5.099946789038276290e-04 -4.659999999999999971e-04 2.193697205060393240e-03 4.024899146109271568e-03 -1.309999999999999967e-03 -8.442160615840523311e-03 -4.333028336947125636e-03 1.433000000000000029e-03 9.435611873705554084e-03 -5.258998046742732052e-03 7.450000000000000025e-04 9.730620511784237106e-03 2.382326881977479534e-04 -5.590000000000000351e-04 2.050384887350195640e-03 4.465089826194377012e-03 -1.099999999999999971e-05 -8.102176549792991511e-03