-2.312303598769678459e+01 1.701779642468265408e+01 -3.027996350291290995e+01 1.701779642468265408e+01 -2.379329843771016684e+01 -2.456553790793398750e-01 -3.027996350291291350e+01 -2.456553790793398750e-01 4.406199615768030498e+01
-2.313380849974744535e+01 1.709922316248167462e+01 -3.016220577033353578e+01 1.709922316248167462e+01 -2.396691677914469665e+01 -1.157278035799677723e-01 -3.016220577033353933e+01 -1.157278035799677723e-01 4.401837096041700903e+01
-2.351074949377977674e+01 1.717778369622001122e+01 -3.003780689230310941e+01 1.717778369622001122e+01 -2.449556028979301558e+01 3.983354469346550922e-03 -3.003780689230310941e+01 3.983354469346550922e-03 4.359897979073409147e+01
-2.286431143804700028e+01 1.724662019991264827e+01 -2.990720750191914235e+01 1.724662019991264827e+01 -2.396298197093928906e+01 9.716047144067153918e-02 -2.990720750191913879e+01 9.716047144067153918e-02 4.431001000083429631e+01
-2.242446837441419305e+01 1.730530109556458740e+01 -2.977579365322868199e+01 1.730530109556458740e+01 -2.362118100249831798e+01 1.856528098424438666e-01 -2.977579365322868199e+01 1.856528098424438666e-01 4.478427967436420687e+01
