1.751689999999994918e-01 1.324807660068088397e-08 -9.669075647695010900e-10 -1.751670000000105365e-01 -1.324792733791939086e-08 -1.999033103474941280e-06 3.736000000156769734e-03 -1.999717444358571342e-06 9.999793798176754293e-07 -3.737999999999989161e-03 -2.827059030613016497e-10 2.063321978836663677e-11 -1.058000117161481818e-03 1.582999920446661679e-03 4.640000042587856554e-04 -9.997761031307212927e-07 -3.008000000726888858e-03 -6.519999969898597047e-04 1.056999882698291069e-03 1.585000080406654462e-03 4.659999925822935199e-04 1.000006706953858342e-06 -1.070000001750875365e-04 -2.509999998986400284e-04 -1.159999955956493643e-04 -7.400000898886707420e-05 -2.159999992857798863e-04 1.149999956712796379e-04 7.300000891323683329e-05 2.159999992922986248e-04 -1.150000043397594309e-04 7.299999151627981650e-05 2.140000005618653846e-04 1.160000046312407312e-04 -7.699999144264729897e-05 -2.160000005633897402e-04 -2.000224112720331788e-06 3.011000000501996236e-03 6.539999970034225804e-04 1.060000117085851609e-03 -1.581999920295401249e-03 -4.640000042708242027e-04 9.999930606355072002e-07 1.100000003253491672e-04 2.499999998846037601e-04 -1.059999882908622352e-03 -1.582000080630548752e-03 -4.629999925687305657e-04 -6.999735438273545153e-06 -2.012999980204259031e-03 2.034800000204937953e-02 8.000264550686700437e-06 -2.012999979071802923e-03 2.034600000196657918e-02 4.207999948629494863e-03 2.139000338230654264e-03 2.000099997463585313e-02 -4.206000051283810201e-03 2.137999701879664868e-03 2.000300002108091474e-02 2.870000518982564002e-04 7.340000411430271966e-04 1.945899999768262514e-02 2.000187307148346536e-06 -9.669999791879669996e-04 2.068400000095487606e-02 -2.879999481663324951e-04 7.349999976576268275e-04 1.946100000085554393e-02 -9.998425825391218935e-07 -5.379999789523790639e-04 2.114700000054291554e-02 -1.209999988229193153e-03 1.307999928518861418e-03 2.005400000537249303e-02 6.540002100693001301e-04 -1.292999930219653013e-03 2.034099999768156433e-02 -6.499997898495460738e-04 -1.294000028840510070e-03 2.034200000488045265e-02 1.207000012089880486e-03 1.304000111320191167e-03 2.005699999203499825e-02 9.979368052532310926e-07 3.159400005911715270e-02 5.910799996843597859e-02 3.006300117138614031e-02 -1.548299772625460341e-02 7.299984952218916377e-05 1.000249988484301500e-06 -1.845999979950821955e-03 1.999600000183840431e-02 -3.006299882868931558e-02 -1.548200227359947286e-02 7.300018140802094183e-05 -1.997937135373535699e-06 -3.159000005919777865e-02 -5.911299996843445009e-02 3.006399882861920600e-02 1.548300227367610180e-02 -7.200018141453966953e-05 9.997506220776089391e-07 1.837999980103081476e-03 -1.999500000184145296e-02 -3.006200117122383858e-02 1.548099772633222855e-02 -7.099984952571126789e-05 1.208999988066892942e-03 -1.305999928596489812e-03 -2.005600000536897354e-02 -1.209000011862989762e-03 -1.307000111471451646e-03 -2.005699999202096087e-02 6.499997896116155218e-04 1.297000028838512283e-03 -2.034400000488344878e-02 -6.510002102095208999e-04 1.294999930448541368e-03 -2.033899999770011693e-02 -2.840000518281460143e-04 -7.350000409171353246e-04 -1.945999999769819008e-02 -1.000157308711481953e-06 5.369999788071118862e-04 -2.114100000053087750e-02 2.889999478748511621e-04 -7.309999975799989389e-04 -1.945900000086505863e-02 -4.000187312668195465e-06 9.669999790357076096e-04 -2.068500000094383381e-02 8.999735524943507567e-06 2.011999980357516947e-03 -2.034600000205941811e-02 4.211000051435071813e-03 -2.139999701501513630e-03 -2.000300002110651579e-02 -4.205999948646054268e-03 -2.139000338082390484e-03 -2.000399997464689245e-02 -1.100026449713585627e-05 2.011999978840916300e-03 -2.035000000194902084e-02
1.750730000000050302e-01 1.324081709482426359e-08 9.990336223413566893e-07 -1.750739999999183505e-01 -1.013240890727325154e-06 1.000966384177375324e-06 3.730000000005508857e-03 2.821018598770692784e-10 9.999794109390554690e-07 -3.730999999999989099e-03 -2.821764912578160398e-10 2.059458079999890921e-11 -1.056000116934591214e-03 1.579999920597922229e-03 4.640000042507425558e-04 2.235998681005004897e-10 -3.004000000650260387e-03 -6.509999969993750723e-04 1.056999883065402792e-03 1.580000080404656698e-03 4.639999925872879028e-04 6.717993572171202023e-12 -1.070000002487200293e-04 -2.489999998931201981e-04 -1.159999955901295149e-04 -7.400000898786819874e-05 -2.149999992857798891e-04 1.159999955200191070e-04 7.500000898886707140e-05 2.159999992847810109e-04 -1.160000044744603672e-04 7.499999144364618002e-05 2.170000005653874883e-04 1.160000044098698089e-04 -7.399999144164843190e-05 -2.150000005663863694e-04 -2.235943482450949366e-10 3.004000000651259154e-03 6.519999969993750966e-04 1.056000116864480847e-03 -1.578999920596923547e-03 -4.630000042517414070e-04 -6.717993572171202023e-12 1.070000002487200293e-04 2.489999998931201981e-04 -1.055999883065402876e-03 -1.580000080329026441e-03 -4.639999925928077929e-04 -8.999735666812032686e-06 -2.010999980369503753e-03 2.033400000205842079e-02 1.000026440329831858e-05 -2.011999978933527982e-03 2.033300000195454107e-02 4.202999948876817195e-03 2.135000337842514993e-03 1.999099997466744286e-02 -4.201000051053047947e-03 2.133999702244831001e-03 1.999000002105731297e-02 2.870000521345391817e-04 7.300000411310408107e-04 1.944699999768662035e-02 1.872889410683103679e-10 -9.679999793562084212e-04 2.066700000096691539e-02 -2.869999479410894152e-04 7.309999977192729479e-04 1.944700000085401725e-02 1.000157253512927807e-06 -5.369999788171006408e-04 2.113100000053087790e-02 -1.205999988149690895e-03 1.305999928808397560e-03 2.004100000535241274e-02 6.520002099219117950e-04 -1.291999930383898884e-03 2.032799999769160232e-02 -6.509997900780845319e-04 -1.292000028930124535e-03 2.032800000488397402e-02 1.207000011785711686e-03 1.307000111306206875e-03 2.004299999203200053e-02 -2.061552383817890202e-09 3.156900005899657830e-02 5.906299996846646472e-02 3.003300117020917676e-02 -1.546699772851751684e-02 7.899984967180279907e-05 2.492360538655527713e-10 -1.836999980039437808e-03 1.998300000183493574e-02 -3.003599882971502016e-02 -1.546800227155146340e-02 7.900018124500057099e-05 -9.979382317651171219e-07 -3.157200005907420670e-02 -5.906499996845795269e-02 3.003699882972054105e-02 1.546800227162809308e-02 -7.800018125052042323e-05 -1.000249208454585390e-06 1.836999979968802037e-03 -1.997800000182941432e-02 -3.003700117020917729e-02 1.546699772821499494e-02 -7.899984964972337419e-05 1.205999988214281372e-03 -1.306999928810395227e-03 -2.004300000535141207e-02 -1.206000011861342027e-03 -1.306000111230576702e-03 -2.004299999203851962e-02 6.509997900946440938e-04 1.292000028933121053e-03 -2.032500000488397449e-02 -6.520002098998323430e-04 1.291999930387894386e-03 -2.032399999769160179e-02 -2.870000520589089245e-04 -7.310000411310408350e-04 -1.944699999768562115e-02 -1.571723628178775110e-10 5.359999788937297492e-04 -2.113000000053539759e-02 2.869999479521291412e-04 -7.309999977172751970e-04 -1.944500000085401872e-02 -1.000187294460920644e-06 9.679999792795792885e-04 -2.066800000096139303e-02 9.999735602221481673e-06 2.011999980447131894e-03 -2.033200000206493788e-02 4.201000051150757114e-03 -2.134999702240835632e-03 -1.998600002105631324e-02 -4.200999948843698456e-03 -2.135000337685261009e-03 -1.998499997467848358e-02 -1.200026432214819781e-05 2.010999978783266535e-03 -2.033200000194250109e-02
1.748859999999829440e-01 1.322667024113785809e-08 -3.000965345445668622e-06 -1.748880000000916923e-01 9.867731725050826823e-07 -2.999034644513497095e-06 3.728999999988949487e-03 2.820232329887463865e-10 -2.000020583541089023e-06 -3.730000000016548637e-03 -2.821038576308572919e-10 -2.999979410939055590e-06 -1.057000116875520543e-03 1.578999920519295538e-03 4.610000042572612484e-04 2.235131981320430578e-10 -3.003000000652257789e-03 -6.529999970003739964e-04 1.055999883124473463e-03 1.579000080326030007e-03 4.609999925938066496e-04 6.695914150548967080e-12 -1.070000002527155447e-04 -2.529999998931202411e-04 -1.159999956066890767e-04 -7.400000899086482513e-05 -2.179999992857799078e-04 1.159999955790898024e-04 7.400000898587044782e-05 2.129999992857798947e-04 -1.170000043507991242e-04 7.299999136302153750e-05 2.120000005729051162e-04 1.170000043933102442e-04 -7.399999136901480102e-05 -2.180000005719062511e-04 -2.235407974090708490e-10 3.003000000647263520e-03 6.479999970003739833e-04 1.057000116847921310e-03 -1.578999920524289807e-03 -4.660000042572612616e-04 -6.723513427576760759e-12 1.070000002477211539e-04 2.479999998931202280e-04 -1.056999883152072613e-03 -1.579000080406654533e-03 -4.659999925882867726e-04 -3.999735722010598705e-06 -2.010999980001341655e-03 2.032400000203081827e-02 6.000264277989372467e-06 -2.010999979245039083e-03 2.032400000197561937e-02 4.197999948978399336e-03 2.133000337455373454e-03 1.998199997469704212e-02 -4.199000051097205935e-03 2.133999702388100512e-03 1.998200002104627213e-02 2.870000520959001679e-04 7.300000411240486825e-04 1.943999999768662029e-02 1.871691519674195658e-10 -9.669999793641994006e-04 2.065900000096591513e-02 -2.859999478339877803e-04 7.289999977869122613e-04 1.943900000085049817e-02 1.571282039746330347e-10 -5.359999789017207529e-04 2.112200000053539653e-02 -1.204999988182809886e-03 1.305999928878034564e-03 2.003500000534689379e-02 6.510002097966028278e-04 -1.290999930468518997e-03 2.031899999769612442e-02 -6.509997902033934749e-04 -1.291000028939114390e-03 2.031900000488297622e-02 1.206000011892813381e-03 1.305000111222585565e-03 2.003499999203952123e-02 9.979409368238092710e-07 3.153200005901626163e-02 5.900699996849790435e-02 2.999200116879592939e-02 -1.544699773160037801e-02 9.699984987813933769e-05 2.490406345070156433e-10 -1.834999980047428980e-03 1.997500000183293975e-02 -2.999399883105263731e-02 -1.544900226835701183e-02 9.700018099418797985e-05 2.059041096766065735e-09 -3.153200005894463143e-02 -5.901099996850342477e-02 2.999499883103055875e-02 1.544900226842864550e-02 -1.010001809997078452e-04 -1.000249057194070224e-06 1.834999979968801988e-03 -1.997800000182741939e-02 -2.999500116896926943e-02 1.544899773136949005e-02 -1.009998498635775291e-04 1.204999988155210436e-03 -1.305999928883028833e-03 -2.004000000534689185e-02 -1.206000011844782574e-03 -1.306000111227579967e-03 -2.003999999203852009e-02 6.509997901813140229e-04 1.291000028935118888e-03 -2.032300000488297675e-02 -6.510002098131623897e-04 1.290999930465522479e-03 -2.032199999769612395e-02 -2.880000521124597541e-04 -7.300000412026755661e-04 -1.944299999768109993e-02 -1.000157063613424825e-06 5.349999788240927204e-04 -2.112400000052887944e-02 2.859999478985783116e-04 -7.299999977889099281e-04 -1.944100000084949750e-02 -1.871801916782306719e-10 9.669999793622016497e-04 -2.066100000096591366e-02 4.999735699931175265e-06 2.010999980072976194e-03 -2.032800000203633869e-02 4.198000051075127109e-03 -2.133999702467726054e-03 -1.998600002104075277e-02 -4.198999948919328665e-03 -2.134000337534000362e-03 -1.998499997469052256e-02 -4.000264289029087960e-06 2.010999979394301630e-03 -2.032600000198666115e-02
1.745869999999238587e-01 1.013204059790730985e-06 -9.636960077559751150e-10 -1.745920000001562888e-01 1.986795561059095445e-06 -9.990362793895960659e-07 3.718000000005508999e-03 2.811942967853796983e-10 9.999794771773212060e-07 -3.719000000070099825e-03 9.997187320707078891e-07 1.000020527343657767e-06 -1.053000116491849270e-03 1.573999920822815321e-03 4.620000042401762523e-04 2.228546052348485188e-10 -2.994000000648262393e-03 -6.489999970093637783e-04 1.051999883664924947e-03 1.572000080025506667e-03 4.629999926228781700e-04 6.577772767689696964e-12 -1.050000002467222976e-04 -2.469999998951179546e-04 -1.139999956602399283e-04 -7.300000883560882510e-05 -2.139999992978184934e-04 1.139999956011692329e-04 7.400000883860543513e-05 2.169999992968196095e-04 -1.150000042530894612e-04 7.199999151827757022e-05 2.160000005628642545e-04 1.150000044855000825e-04 -7.499999151727868637e-05 -2.150000005598676309e-04 9.997770752843598664e-07 2.995000000724891767e-03 6.499999970028450371e-04 1.052000116432778550e-03 -1.572999920895448928e-03 -4.590000042356552731e-04 -1.000006642363311609e-06 1.060000001730897749e-04 2.489999998996389094e-04 -1.051999883578254909e-03 -1.573000080023508832e-03 -4.609999926218793002e-04 -5.999735987540355051e-06 -2.007999980159594008e-03 2.031700000203886386e-02 8.000264099129573785e-06 -2.008999979098772572e-03 2.031900000196258313e-02 4.188999949317911281e-03 2.128000336767709322e-03 1.997499997475171707e-02 -4.192000050833324942e-03 2.129999702910519762e-03 1.997500002101162617e-02 2.860000521384113313e-04 7.290000410424252566e-04 1.943399999769314032e-02 1.871895836710102832e-10 -9.679999793741881796e-04 2.064900000096691474e-02 -2.859999476402161323e-04 7.259999977809189356e-04 1.943300000085349324e-02 1.569973751629311522e-10 -5.349999789117094832e-04 2.111200000053439774e-02 -1.201999987989038274e-03 1.302999929098931902e-03 2.002900000533333266e-02 6.490002095200333217e-04 -1.287999930628769534e-03 2.030999999770416800e-02 -6.509997904910027125e-04 -1.288000028950102164e-03 2.030800000487997803e-02 1.204000011999915160e-03 1.303000111063333999e-03 2.002699999205255835e-02 1.997944924301442380e-06 3.147300005900599551e-02 5.892099996855132416e-02 2.993500116651540491e-02 -1.541399773587234616e-02 1.359998501598081767e-04 -1.999751235934958491e-06 -1.831999980207679301e-03 1.996600000184098334e-02 -2.993599883334972095e-02 -1.541600226393449735e-02 1.330001806410734501e-04 1.002055070178693006e-06 -3.147300005878009982e-02 -5.892199996856788136e-02 2.993299883347890281e-02 1.541400226370361233e-02 -1.370001806225161262e-04 -2.000248850734997479e-06 1.832999979903160437e-03 -1.996800000181990151e-02 -2.993700116673125508e-02 1.541699773572308314e-02 -1.339998501517651098e-04 1.201999987913408017e-03 -1.301999929098931986e-03 -2.002900000533433186e-02 -1.203000011865214183e-03 -1.305000110990700308e-03 -2.002999999205607937e-02 6.499997905500733836e-04 1.287000028871475039e-03 -2.031100000487345847e-02 -6.510002095956636276e-04 1.288999930477508936e-03 -2.030999999769412742e-02 -2.860000522951916817e-04 -7.270000410434240834e-04 -1.943499999769513972e-02 -3.000156916225041489e-06 5.339999786858175626e-04 -2.111100000051684134e-02 2.859999479482570515e-04 -7.299999977799200490e-04 -1.943200000084949891e-02 1.999812880526725350e-06 9.669999795244497943e-04 -2.065000000097695632e-02 7.999736046611038062e-06 2.006999980307858089e-03 -2.032000000204890397e-02 4.188000050752174915e-03 -2.128999703214039425e-03 -1.997600002099054681e-02 -4.192999949306871164e-03 -2.128000337068232384e-03 -1.997299997472963898e-02 -5.000264093609727654e-06 2.008999979326661894e-03 -2.031800000197914180e-02
1.741590000001618233e-01 -1.986828307961776752e-06 1.999038669487019197e-06 -1.741700000000105386e-01 -1.317252397105151616e-08 -1.999038606770856215e-06 3.700000000059060126e-03 -9.997201710433568036e-07 -3.000020422466403699e-06 -3.699999999843208917e-03 -2.000279830954388478e-06 1.000020425463032927e-06 -1.052000115978997006e-03 1.566999920895448999e-03 4.590000042416485259e-04 -2.999778414549570543e-06 -2.977000000872156993e-03 -6.459999970097851348e-04 1.051999883950886306e-03 1.568000080022509835e-03 4.599999926268737074e-04 1.000006409952683171e-06 -1.030000001740886587e-04 -2.499999999026355601e-04 -1.159999957358701664e-04 -7.200000898686934243e-05 -2.139999992877776429e-04 1.149999956547200760e-04 7.300000891024020690e-05 2.129999992922986332e-04 -1.140000042641291765e-04 7.199999159191009012e-05 2.140000005573444242e-04 1.130000042696490152e-04 -7.199999166654147192e-05 -2.130000005518245640e-04 -2.217367109363704719e-10 2.979000000645265836e-03 6.459999970243469457e-04 1.052000115816696928e-03 -1.564999920897446701e-03 -4.610000042436462712e-04 2.999993654637852369e-06 1.020000004746119397e-04 2.479999998815550434e-04 -1.052999883945366548e-03 -1.568000080097141325e-03 -4.589999926213538472e-04 -1.399973668641993296e-05 -1.999999980781617080e-03 2.030000000207502972e-02 1.300026337817053462e-05 -2.000999978741597584e-03 2.029800000192699336e-02 4.183999949532115140e-03 2.124000336373575715e-03 1.995899997478331120e-02 -4.182000050515892638e-03 2.124999703655834800e-03 1.996400002096142268e-02 2.840000522179137138e-04 7.270000408781793124e-04 1.942099999770617938e-02 1.000186372562681955e-06 -9.579999793095455261e-04 2.063800000095140225e-02 -2.849999481381565013e-04 7.319999978485582266e-04 1.942500000084198403e-02 1.000156741237391850e-06 -5.329999788550579196e-04 2.109300000052688126e-02 -1.198999987547944100e-03 1.295999929309840822e-03 2.001300000532376180e-02 6.540002093616052682e-04 -1.286999930265601139e-03 2.029499999767556823e-02 -6.499997906052718509e-04 -1.287000028881463793e-03 2.030100000487345888e-02 1.196000012322867784e-03 1.298000110448303173e-03 2.001699999210171041e-02 -1.002048398074068070e-06 3.137500005864624769e-02 5.878799996866577310e-02 2.985500116358732678e-02 -1.537199774187781795e-02 1.809998505594438061e-04 3.000248507927259222e-06 -1.829999979848506708e-03 1.994700000181138383e-02 -2.985499883622259876e-02 -1.537400225775350897e-02 1.880001801520123290e-04 -1.997951493176532979e-06 -3.137600005886715532e-02 -5.878199996864821170e-02 2.985399883650468808e-02 1.537100225768786577e-02 -1.780001801434958405e-04 1.999751718963499430e-06 1.826999980226658030e-03 -1.994700000183598568e-02 -2.985200116321469477e-02 1.536699774210370864e-02 -1.819998505710089878e-04 1.198999987693684724e-03 -1.297999929310839420e-03 -2.001400000532176440e-02 -1.199000012678939691e-03 -1.293000110671198646e-03 -2.001299999209014621e-02 6.509997904170201173e-04 1.290000028964086252e-03 -2.029400000488197631e-02 -6.510002092804551563e-04 1.285999930493490978e-03 -2.029399999769112770e-02 -2.840000522123938779e-04 -7.270000408771804369e-04 -1.941999999770617838e-02 4.999843037391674091e-06 5.359999793098383031e-04 -2.109200000056299720e-02 2.819999476843749932e-04 -7.259999980754489610e-04 -1.942500000083141609e-02 -4.000186507263621763e-06 9.599999790856514293e-04 -2.063500000093684145e-02 1.199973661630953921e-05 2.000999980631355465e-03 -2.029900000206499161e-02 4.185000050537971729e-03 -2.124999703424948743e-03 -1.996000002097798182e-02 -4.178999949332823372e-03 -2.127000336000418879e-03 -1.996399997480791111e-02 -1.900026308116934499e-05 1.996999978286817176e-03 -2.029900000188988168e-02
1.736100000014309253e-01 -1.898686983196980254e-05 -1.000958283131421400e-06 -1.736009999993133046e-01 -9.013129487357796955e-06 1.000958261421263289e-06 3.682999999826649159e-03 2.000278542243377574e-06 -4.000020331625489769e-06 -3.672999999313797219e-03 -9.000277788937411719e-06 1.000020283419070343e-06 -1.039000116156209210e-03 1.569999921887632079e-03 4.680000041668937638e-04 1.100022118134754081e-05 -2.970999999804343258e-03 -6.369999970930564134e-04 1.041999883956406170e-03 1.568000079267206246e-03 4.609999926820722532e-04 -1.999993573487741259e-06 -1.030000003979828041e-04 -2.469999998860759795e-04 -1.099999956105612403e-04 -7.300000852409790333e-05 -2.049999993198979163e-04 1.159999953632387431e-04 7.700000898786820390e-05 2.149999992827832627e-04 -1.080000042144504805e-04 7.199999205468152641e-05 2.230000005242252753e-04 1.150000042254901869e-04 -7.199999152327194753e-05 -2.210000005628642676e-04 -1.800022117030781048e-05 2.970999999276929208e-03 6.389999971316953674e-04 1.034000114493991308e-03 -1.546999922251799308e-03 -4.540000041622686507e-04 7.999993331685102387e-06 1.070000008627519802e-04 2.579999998489613503e-04 -1.044999884891568455e-03 -1.556000079499091429e-03 -4.659999926774992100e-04 -4.999737130809513173e-06 -1.994999980112930824e-03 2.028800000202036005e-02 1.400026374528210910e-05 -2.005999978667965308e-03 2.029600000192647094e-02 4.171999950244259167e-03 2.114000335458022031e-03 1.995099997485953736e-02 -4.175000050085837279e-03 2.117999704167266781e-03 1.994600002092977373e-02 2.850000521792747242e-04 7.270000409468174414e-04 1.941399999770065943e-02 -1.999813046122387364e-06 -9.669999795544161666e-04 2.062000000097695407e-02 -2.819999472488007278e-04 7.189999980584680164e-04 1.940800000083840737e-02 2.000156944401022260e-06 -5.369999787974075178e-04 2.107500000052535752e-02 -1.190999987776482664e-03 1.297999929900898455e-03 1.999900000527760416e-02 6.480002092031771641e-04 -1.285999930734366007e-03 2.027999999770768724e-02 -6.499997912616404735e-04 -1.280000028904438193e-03 2.027800000486646922e-02 1.202000012158919865e-03 1.299000110886102842e-03 2.000099999206759321e-02 7.997958333101221138e-06 3.127600005919008164e-02 5.865099996871498550e-02 2.973900115905775063e-02 -1.530699775058100461e-02 2.509998511348200266e-04 -3.999752443794655586e-06 -1.817999980385909438e-03 1.993900000183803506e-02 -2.975199884031660275e-02 -1.531600224991065164e-02 2.410001795255323827e-04 9.002041651986882276e-06 -3.127500005789337484e-02 -5.863999996880981530e-02 2.972999884188111050e-02 1.529400224822880655e-02 -2.590001793821202760e-04 -2.000248063537708263e-06 1.824999979936123458e-03 -1.993500000181190959e-02 -2.974700115936966538e-02 1.531199774998794928e-02 -2.389998510956556149e-04 1.195999987582711029e-03 -1.294999929516753951e-03 -1.999300000530820215e-02 -1.202000011823279712e-03 -1.303000110880109469e-03 -1.999499999206359735e-02 6.489997918832420692e-04 1.272000028831804476e-03 -2.027500000485295967e-02 -6.460002090243173673e-04 1.283999930890620958e-03 -2.027499999771673056e-02 -2.840000520374062493e-04 -7.280000408592005945e-04 -1.940199999770517852e-02 -4.000156354270802478e-06 5.299999786571345716e-04 -2.106400000050732621e-02 2.789999480603018575e-04 -7.289999982753700598e-04 -1.939800000081185610e-02 1.099981370636297529e-05 9.589999802450773674e-04 -2.061000000101863988e-02 1.599973623815823491e-05 2.005999980933876291e-03 -2.029900000209206370e-02 4.164000050054367068e-03 -2.116999704991208257e-03 -1.993800002087005654e-02 -4.172999950545131474e-03 -2.109000335519667802e-03 -1.993699997485901335e-02 -4.000263787793262959e-06 2.006999979430261049e-03 -2.029000000198266304e-02
