8.658915959999999856e+00 0.000000000000000000e+00 0.000000000000000000e+00 0.000000000000000000e+00 1.874710376999999895e+01 0.000000000000000000e+00 0.000000000000000000e+00 0.000000000000000000e+00 2.014281761000000159e+01
8.658915959999999856e+00 0.000000000000000000e+00 0.000000000000000000e+00 0.000000000000000000e+00 1.874710376999999895e+01 0.000000000000000000e+00 0.000000000000000000e+00 0.000000000000000000e+00 2.014281761000000159e+01
8.658915959999999856e+00 0.000000000000000000e+00 0.000000000000000000e+00 0.000000000000000000e+00 1.874710376999999895e+01 0.000000000000000000e+00 0.000000000000000000e+00 0.000000000000000000e+00 2.014281761000000159e+01
8.658915959999999856e+00 0.000000000000000000e+00 0.000000000000000000e+00 0.000000000000000000e+00 1.874710376999999895e+01 0.000000000000000000e+00 0.000000000000000000e+00 0.000000000000000000e+00 2.014281761000000159e+01
8.658915959999999856e+00 0.000000000000000000e+00 0.000000000000000000e+00 0.000000000000000000e+00 1.874710376999999895e+01 0.000000000000000000e+00 0.000000000000000000e+00 0.000000000000000000e+00 2.014281761000000159e+01
