1.399999999999999877e-04 1.871629000000000076e+01 4.607389999999999652e+00 1.443289999999999962e+00 3.093690000000000051e+00 4.607380000000000031e+00 1.299999999999999886e-04 4.196710000000000385e+00 2.080639999999999823e+00 1.443279999999999896e+00 1.072179999999999911e+00 2.080630000000000202e+00 2.886439999999999895e+00 1.871629000000000076e+01 4.607389999999999652e+00 4.329589999999999606e+00 3.093690000000000051e+00 4.607380000000000031e+00 2.886429999999999829e+00 4.196710000000000385e+00 2.080639999999999823e+00 4.329589999999999606e+00 1.072179999999999911e+00 2.080630000000000202e+00 5.772750000000000270e+00 1.871629000000000076e+01 4.607389999999999652e+00 7.215900000000000425e+00 3.093690000000000051e+00 4.607380000000000031e+00 5.772739999999999760e+00 4.196710000000000385e+00 2.080639999999999823e+00 7.215889999999999915e+00 1.072179999999999911e+00 2.080630000000000202e+00 1.399999999999999877e-04 6.218219999999999636e+00 4.607389999999999652e+00 1.443289999999999962e+00 9.342719999999999914e+00 4.607380000000000031e+00 1.299999999999999886e-04 1.044575000000000031e+01 2.080639999999999823e+00 1.443279999999999896e+00 7.321209999999999773e+00 2.080630000000000202e+00 2.886439999999999895e+00 6.218219999999999636e+00 4.607389999999999652e+00 4.329589999999999606e+00 9.342719999999999914e+00 4.607380000000000031e+00 2.886429999999999829e+00 1.044575000000000031e+01 2.080639999999999823e+00 4.329589999999999606e+00 7.321209999999999773e+00 2.080630000000000202e+00 5.772750000000000270e+00 6.218219999999999636e+00 4.607389999999999652e+00 7.215900000000000425e+00 9.342719999999999914e+00 4.607380000000000031e+00 5.772739999999999760e+00 1.044575000000000031e+01 2.080639999999999823e+00 7.215889999999999915e+00 7.321209999999999773e+00 2.080630000000000202e+00 1.399999999999999877e-04 1.246725999999999956e+01 4.607389999999999652e+00 1.443289999999999962e+00 1.559176000000000073e+01 4.607380000000000031e+00 1.299999999999999886e-04 1.669478000000000151e+01 2.080639999999999823e+00 1.443279999999999896e+00 1.357024000000000008e+01 2.080630000000000202e+00 2.886439999999999895e+00 1.246725999999999956e+01 4.607389999999999652e+00 4.329589999999999606e+00 1.559176000000000073e+01 4.607380000000000031e+00 2.886429999999999829e+00 1.669478000000000151e+01 2.080639999999999823e+00 4.329589999999999606e+00 1.357024000000000008e+01 2.080630000000000202e+00 5.772750000000000270e+00 1.246725999999999956e+01 4.607389999999999652e+00 7.215900000000000425e+00 1.559176000000000073e+01 4.607380000000000031e+00 5.772739999999999760e+00 1.669478000000000151e+01 2.080639999999999823e+00 7.215889999999999915e+00 1.357024000000000008e+01 2.080630000000000202e+00 1.399999999999999877e-04 1.871629000000000076e+01 1.132165999999999961e+01 1.443289999999999962e+00 3.093690000000000051e+00 1.132165999999999961e+01 1.299999999999999886e-04 4.196710000000000385e+00 8.794919999999999405e+00 1.443279999999999896e+00 1.072179999999999911e+00 8.794900000000000162e+00 2.886439999999999895e+00 1.871629000000000076e+01 1.132165999999999961e+01 4.329589999999999606e+00 3.093690000000000051e+00 1.132165999999999961e+01 2.886429999999999829e+00 4.196710000000000385e+00 8.794919999999999405e+00 4.329589999999999606e+00 1.072179999999999911e+00 8.794900000000000162e+00 5.772750000000000270e+00 1.871629000000000076e+01 1.132165999999999961e+01 7.215900000000000425e+00 3.093690000000000051e+00 1.132165999999999961e+01 5.772739999999999760e+00 4.196710000000000385e+00 8.794919999999999405e+00 7.215889999999999915e+00 1.072179999999999911e+00 8.794900000000000162e+00 1.399999999999999877e-04 6.218219999999999636e+00 1.132165999999999961e+01 1.443289999999999962e+00 9.342719999999999914e+00 1.132165999999999961e+01 1.299999999999999886e-04 1.044575000000000031e+01 8.794919999999999405e+00 1.443279999999999896e+00 7.321209999999999773e+00 8.794900000000000162e+00 2.886439999999999895e+00 6.218219999999999636e+00 1.132165999999999961e+01 4.329589999999999606e+00 9.342719999999999914e+00 1.132165999999999961e+01 2.886429999999999829e+00 1.044575000000000031e+01 8.794919999999999405e+00 4.329589999999999606e+00 7.321209999999999773e+00 8.794900000000000162e+00 5.772750000000000270e+00 6.218219999999999636e+00 1.132165999999999961e+01 7.215900000000000425e+00 9.342719999999999914e+00 1.132165999999999961e+01 5.772739999999999760e+00 1.044575000000000031e+01 8.794919999999999405e+00 7.215889999999999915e+00 7.321209999999999773e+00 8.794900000000000162e+00 1.399999999999999877e-04 1.246725999999999956e+01 1.132165999999999961e+01 1.443289999999999962e+00 1.559176000000000073e+01 1.132165999999999961e+01 1.299999999999999886e-04 1.669478000000000151e+01 8.794919999999999405e+00 1.443279999999999896e+00 1.357024000000000008e+01 8.794900000000000162e+00 2.886439999999999895e+00 1.246725999999999956e+01 1.132165999999999961e+01 4.329589999999999606e+00 1.559176000000000073e+01 1.132165999999999961e+01 2.886429999999999829e+00 1.669478000000000151e+01 8.794919999999999405e+00 4.329589999999999606e+00 1.357024000000000008e+01 8.794900000000000162e+00 5.772750000000000270e+00 1.246725999999999956e+01 1.132165999999999961e+01 7.215900000000000425e+00 1.559176000000000073e+01 1.132165999999999961e+01 5.772739999999999760e+00 1.669478000000000151e+01 8.794919999999999405e+00 7.215889999999999915e+00 1.357024000000000008e+01 8.794900000000000162e+00 1.399999999999999877e-04 1.871629000000000076e+01 1.803593000000000046e+01 1.443289999999999962e+00 3.093690000000000051e+00 1.803593000000000046e+01 1.299999999999999886e-04 4.196710000000000385e+00 1.550919000000000025e+01 1.443279999999999896e+00 1.072179999999999911e+00 1.550918000000000063e+01 2.886439999999999895e+00 1.871629000000000076e+01 1.803593000000000046e+01 4.329589999999999606e+00 3.093690000000000051e+00 1.803593000000000046e+01 2.886429999999999829e+00 4.196710000000000385e+00 1.550919000000000025e+01 4.329589999999999606e+00 1.072179999999999911e+00 1.550918000000000063e+01 5.772750000000000270e+00 1.871629000000000076e+01 1.803593000000000046e+01 7.215900000000000425e+00 3.093690000000000051e+00 1.803593000000000046e+01 5.772739999999999760e+00 4.196710000000000385e+00 1.550919000000000025e+01 7.215889999999999915e+00 1.072179999999999911e+00 1.550918000000000063e+01 1.399999999999999877e-04 6.218219999999999636e+00 1.803593000000000046e+01 1.443289999999999962e+00 9.342719999999999914e+00 1.803593000000000046e+01 1.299999999999999886e-04 1.044575000000000031e+01 1.550919000000000025e+01 1.443279999999999896e+00 7.321209999999999773e+00 1.550918000000000063e+01 2.886439999999999895e+00 6.218219999999999636e+00 1.803593000000000046e+01 4.329589999999999606e+00 9.342719999999999914e+00 1.803593000000000046e+01 2.886429999999999829e+00 1.044575000000000031e+01 1.550919000000000025e+01 4.329589999999999606e+00 7.321209999999999773e+00 1.550918000000000063e+01 5.772750000000000270e+00 6.218219999999999636e+00 1.803593000000000046e+01 7.215900000000000425e+00 9.342719999999999914e+00 1.803593000000000046e+01 5.772739999999999760e+00 1.044575000000000031e+01 1.550919000000000025e+01 7.215889999999999915e+00 7.321209999999999773e+00 1.550918000000000063e+01 1.399999999999999877e-04 1.246725999999999956e+01 1.803593000000000046e+01 1.443289999999999962e+00 1.559176000000000073e+01 1.803593000000000046e+01 1.299999999999999886e-04 1.669478000000000151e+01 1.550919000000000025e+01 1.443279999999999896e+00 1.357024000000000008e+01 1.550918000000000063e+01 2.886439999999999895e+00 1.246725999999999956e+01 1.803593000000000046e+01 4.329589999999999606e+00 1.559176000000000073e+01 1.803593000000000046e+01 2.886429999999999829e+00 1.669478000000000151e+01 1.550919000000000025e+01 4.329589999999999606e+00 1.357024000000000008e+01 1.550918000000000063e+01 5.772750000000000270e+00 1.246725999999999956e+01 1.803593000000000046e+01 7.215900000000000425e+00 1.559176000000000073e+01 1.803593000000000046e+01 5.772739999999999760e+00 1.669478000000000151e+01 1.550919000000000025e+01 7.215889999999999915e+00 1.357024000000000008e+01 1.550918000000000063e+01 1.100000000000000039e-04 2.082949999999999857e+00 3.343999999999999861e+00 1.100000000000000039e-04 4.186729999999999841e+00 5.563290000000000290e+00 1.443259999999999987e+00 3.103730000000000100e+00 1.124689999999999968e+00 1.100000000000000039e-04 1.872631000000000157e+01 1.124670000000000059e+00 1.443259999999999987e+00 5.207530000000000214e+00 3.343999999999999861e+00 1.443270000000000053e+00 1.062210000000000099e+00 5.563320000000000043e+00 2.886410000000000142e+00 2.082949999999999857e+00 3.343999999999999861e+00 2.886420000000000208e+00 4.186729999999999841e+00 5.563290000000000290e+00 4.329570000000000363e+00 3.103730000000000100e+00 1.124689999999999968e+00 2.886420000000000208e+00 1.872631000000000157e+01 1.124670000000000059e+00 4.329559999999999853e+00 5.207530000000000214e+00 3.343999999999999861e+00 4.329570000000000363e+00 1.062210000000000099e+00 5.563320000000000043e+00 5.772719999999999629e+00 2.082949999999999857e+00 3.343999999999999861e+00 5.772719999999999629e+00 4.186729999999999841e+00 5.563290000000000290e+00 7.215880000000000294e+00 3.103730000000000100e+00 1.124689999999999968e+00 5.772719999999999629e+00 1.872631000000000157e+01 1.124670000000000059e+00 7.215869999999999784e+00 5.207530000000000214e+00 3.343999999999999861e+00 7.215880000000000294e+00 1.062210000000000099e+00 5.563320000000000043e+00 1.100000000000000039e-04 8.331979999999999720e+00 3.343999999999999861e+00 1.100000000000000039e-04 1.043576999999999977e+01 5.563290000000000290e+00 1.443259999999999987e+00 9.352769999999999584e+00 1.124689999999999968e+00 1.100000000000000039e-04 6.228240000000000443e+00 1.124670000000000059e+00 1.443259999999999987e+00 1.145655999999999963e+01 3.343999999999999861e+00 1.443270000000000053e+00 7.311250000000000249e+00 5.563320000000000043e+00 2.886410000000000142e+00 8.331979999999999720e+00 3.343999999999999861e+00 2.886420000000000208e+00 1.043576999999999977e+01 5.563290000000000290e+00 4.329570000000000363e+00 9.352769999999999584e+00 1.124689999999999968e+00 2.886420000000000208e+00 6.228240000000000443e+00 1.124670000000000059e+00 4.329559999999999853e+00 1.145655999999999963e+01 3.343999999999999861e+00 4.329570000000000363e+00 7.311250000000000249e+00 5.563320000000000043e+00 5.772719999999999629e+00 8.331979999999999720e+00 3.343999999999999861e+00 5.772719999999999629e+00 1.043576999999999977e+01 5.563290000000000290e+00 7.215880000000000294e+00 9.352769999999999584e+00 1.124689999999999968e+00 5.772719999999999629e+00 6.228240000000000443e+00 1.124670000000000059e+00 7.215869999999999784e+00 1.145655999999999963e+01 3.343999999999999861e+00 7.215880000000000294e+00 7.311250000000000249e+00 5.563320000000000043e+00 1.100000000000000039e-04 1.458100999999999914e+01 3.343999999999999861e+00 1.100000000000000039e-04 1.668479999999999919e+01 5.563290000000000290e+00 1.443259999999999987e+00 1.560180000000000078e+01 1.124689999999999968e+00 1.100000000000000039e-04 1.247727000000000075e+01 1.124670000000000059e+00 1.443259999999999987e+00 1.770559000000000083e+01 3.343999999999999861e+00 1.443270000000000053e+00 1.356028000000000056e+01 5.563320000000000043e+00 2.886410000000000142e+00 1.458100999999999914e+01 3.343999999999999861e+00 2.886420000000000208e+00 1.668479999999999919e+01 5.563290000000000290e+00 4.329570000000000363e+00 1.560180000000000078e+01 1.124689999999999968e+00 2.886420000000000208e+00 1.247727000000000075e+01 1.124670000000000059e+00 4.329559999999999853e+00 1.770559000000000083e+01 3.343999999999999861e+00 4.329570000000000363e+00 1.356028000000000056e+01 5.563320000000000043e+00 5.772719999999999629e+00 1.458100999999999914e+01 3.343999999999999861e+00 5.772719999999999629e+00 1.668479999999999919e+01 5.563290000000000290e+00 7.215880000000000294e+00 1.560180000000000078e+01 1.124689999999999968e+00 5.772719999999999629e+00 1.247727000000000075e+01 1.124670000000000059e+00 7.215869999999999784e+00 1.770559000000000083e+01 3.343999999999999861e+00 7.215880000000000294e+00 1.356028000000000056e+01 5.563320000000000043e+00 1.100000000000000039e-04 2.082949999999999857e+00 1.005827999999999989e+01 1.100000000000000039e-04 4.186729999999999841e+00 1.227755999999999936e+01 1.443259999999999987e+00 3.103730000000000100e+00 7.838960000000000150e+00 1.100000000000000039e-04 1.872631000000000157e+01 7.838949999999999640e+00 1.443259999999999987e+00 5.207530000000000214e+00 1.005827000000000027e+01 1.443270000000000053e+00 1.062210000000000099e+00 1.227759000000000000e+01 2.886410000000000142e+00 2.082949999999999857e+00 1.005827999999999989e+01 2.886420000000000208e+00 4.186729999999999841e+00 1.227755999999999936e+01 4.329570000000000363e+00 3.103730000000000100e+00 7.838960000000000150e+00 2.886420000000000208e+00 1.872631000000000157e+01 7.838949999999999640e+00 4.329559999999999853e+00 5.207530000000000214e+00 1.005827000000000027e+01 4.329570000000000363e+00 1.062210000000000099e+00 1.227759000000000000e+01 5.772719999999999629e+00 2.082949999999999857e+00 1.005827999999999989e+01 5.772719999999999629e+00 4.186729999999999841e+00 1.227755999999999936e+01 7.215880000000000294e+00 3.103730000000000100e+00 7.838960000000000150e+00 5.772719999999999629e+00 1.872631000000000157e+01 7.838949999999999640e+00 7.215869999999999784e+00 5.207530000000000214e+00 1.005827000000000027e+01 7.215880000000000294e+00 1.062210000000000099e+00 1.227759000000000000e+01 1.100000000000000039e-04 8.331979999999999720e+00 1.005827999999999989e+01 1.100000000000000039e-04 1.043576999999999977e+01 1.227755999999999936e+01 1.443259999999999987e+00 9.352769999999999584e+00 7.838960000000000150e+00 1.100000000000000039e-04 6.228240000000000443e+00 7.838949999999999640e+00 1.443259999999999987e+00 1.145655999999999963e+01 1.005827000000000027e+01 1.443270000000000053e+00 7.311250000000000249e+00 1.227759000000000000e+01 2.886410000000000142e+00 8.331979999999999720e+00 1.005827999999999989e+01 2.886420000000000208e+00 1.043576999999999977e+01 1.227755999999999936e+01 4.329570000000000363e+00 9.352769999999999584e+00 7.838960000000000150e+00 2.886420000000000208e+00 6.228240000000000443e+00 7.838949999999999640e+00 4.329559999999999853e+00 1.145655999999999963e+01 1.005827000000000027e+01 4.329570000000000363e+00 7.311250000000000249e+00 1.227759000000000000e+01 5.772719999999999629e+00 8.331979999999999720e+00 1.005827999999999989e+01 5.772719999999999629e+00 1.043576999999999977e+01 1.227755999999999936e+01 7.215880000000000294e+00 9.352769999999999584e+00 7.838960000000000150e+00 5.772719999999999629e+00 6.228240000000000443e+00 7.838949999999999640e+00 7.215869999999999784e+00 1.145655999999999963e+01 1.005827000000000027e+01 7.215880000000000294e+00 7.311250000000000249e+00 1.227759000000000000e+01 1.100000000000000039e-04 1.458100999999999914e+01 1.005827999999999989e+01 1.100000000000000039e-04 1.668479999999999919e+01 1.227755999999999936e+01 1.443259999999999987e+00 1.560180000000000078e+01 7.838960000000000150e+00 1.100000000000000039e-04 1.247727000000000075e+01 7.838949999999999640e+00 1.443259999999999987e+00 1.770559000000000083e+01 1.005827000000000027e+01 1.443270000000000053e+00 1.356028000000000056e+01 1.227759000000000000e+01 2.886410000000000142e+00 1.458100999999999914e+01 1.005827999999999989e+01 2.886420000000000208e+00 1.668479999999999919e+01 1.227755999999999936e+01 4.329570000000000363e+00 1.560180000000000078e+01 7.838960000000000150e+00 2.886420000000000208e+00 1.247727000000000075e+01 7.838949999999999640e+00 4.329559999999999853e+00 1.770559000000000083e+01 1.005827000000000027e+01 4.329570000000000363e+00 1.356028000000000056e+01 1.227759000000000000e+01 5.772719999999999629e+00 1.458100999999999914e+01 1.005827999999999989e+01 5.772719999999999629e+00 1.668479999999999919e+01 1.227755999999999936e+01 7.215880000000000294e+00 1.560180000000000078e+01 7.838960000000000150e+00 5.772719999999999629e+00 1.247727000000000075e+01 7.838949999999999640e+00 7.215869999999999784e+00 1.770559000000000083e+01 1.005827000000000027e+01 7.215880000000000294e+00 1.356028000000000056e+01 1.227759000000000000e+01 1.100000000000000039e-04 2.082949999999999857e+00 1.677254999999999896e+01 1.100000000000000039e-04 4.186729999999999841e+00 1.899183000000000021e+01 1.443259999999999987e+00 3.103730000000000100e+00 1.455322999999999922e+01 1.100000000000000039e-04 1.872631000000000157e+01 1.455321999999999960e+01 1.443259999999999987e+00 5.207530000000000214e+00 1.677254999999999896e+01 1.443270000000000053e+00 1.062210000000000099e+00 1.899186999999999870e+01 2.886410000000000142e+00 2.082949999999999857e+00 1.677254999999999896e+01 2.886420000000000208e+00 4.186729999999999841e+00 1.899183000000000021e+01 4.329570000000000363e+00 3.103730000000000100e+00 1.455322999999999922e+01 2.886420000000000208e+00 1.872631000000000157e+01 1.455321999999999960e+01 4.329559999999999853e+00 5.207530000000000214e+00 1.677254999999999896e+01 4.329570000000000363e+00 1.062210000000000099e+00 1.899186999999999870e+01 5.772719999999999629e+00 2.082949999999999857e+00 1.677254999999999896e+01 5.772719999999999629e+00 4.186729999999999841e+00 1.899183000000000021e+01 7.215880000000000294e+00 3.103730000000000100e+00 1.455322999999999922e+01 5.772719999999999629e+00 1.872631000000000157e+01 1.455321999999999960e+01 7.215869999999999784e+00 5.207530000000000214e+00 1.677254999999999896e+01 7.215880000000000294e+00 1.062210000000000099e+00 1.899186999999999870e+01 1.100000000000000039e-04 8.331979999999999720e+00 1.677254999999999896e+01 1.100000000000000039e-04 1.043576999999999977e+01 1.899183000000000021e+01 1.443259999999999987e+00 9.352769999999999584e+00 1.455322999999999922e+01 1.100000000000000039e-04 6.228240000000000443e+00 1.455321999999999960e+01 1.443259999999999987e+00 1.145655999999999963e+01 1.677254999999999896e+01 1.443270000000000053e+00 7.311250000000000249e+00 1.899186999999999870e+01 2.886410000000000142e+00 8.331979999999999720e+00 1.677254999999999896e+01 2.886420000000000208e+00 1.043576999999999977e+01 1.899183000000000021e+01 4.329570000000000363e+00 9.352769999999999584e+00 1.455322999999999922e+01 2.886420000000000208e+00 6.228240000000000443e+00 1.455321999999999960e+01 4.329559999999999853e+00 1.145655999999999963e+01 1.677254999999999896e+01 4.329570000000000363e+00 7.311250000000000249e+00 1.899186999999999870e+01 5.772719999999999629e+00 8.331979999999999720e+00 1.677254999999999896e+01 5.772719999999999629e+00 1.043576999999999977e+01 1.899183000000000021e+01 7.215880000000000294e+00 9.352769999999999584e+00 1.455322999999999922e+01 5.772719999999999629e+00 6.228240000000000443e+00 1.455321999999999960e+01 7.215869999999999784e+00 1.145655999999999963e+01 1.677254999999999896e+01 7.215880000000000294e+00 7.311250000000000249e+00 1.899186999999999870e+01 1.100000000000000039e-04 1.458100999999999914e+01 1.677254999999999896e+01 1.100000000000000039e-04 1.668479999999999919e+01 1.899183000000000021e+01 1.443259999999999987e+00 1.560180000000000078e+01 1.455322999999999922e+01 1.100000000000000039e-04 1.247727000000000075e+01 1.455321999999999960e+01 1.443259999999999987e+00 1.770559000000000083e+01 1.677254999999999896e+01 1.443270000000000053e+00 1.356028000000000056e+01 1.899186999999999870e+01 2.886410000000000142e+00 1.458100999999999914e+01 1.677254999999999896e+01 2.886420000000000208e+00 1.668479999999999919e+01 1.899183000000000021e+01 4.329570000000000363e+00 1.560180000000000078e+01 1.455322999999999922e+01 2.886420000000000208e+00 1.247727000000000075e+01 1.455321999999999960e+01 4.329559999999999853e+00 1.770559000000000083e+01 1.677254999999999896e+01 4.329570000000000363e+00 1.356028000000000056e+01 1.899186999999999870e+01 5.772719999999999629e+00 1.458100999999999914e+01 1.677254999999999896e+01 5.772719999999999629e+00 1.668479999999999919e+01 1.899183000000000021e+01 7.215880000000000294e+00 1.560180000000000078e+01 1.455322999999999922e+01 5.772719999999999629e+00 1.247727000000000075e+01 1.455321999999999960e+01 7.215869999999999784e+00 1.770559000000000083e+01 1.677254999999999896e+01 7.215880000000000294e+00 1.356028000000000056e+01 1.899186999999999870e+01