-2.749695118619999903e+03
-2.749663832149999962e+03
-2.749569683040000200e+03
-2.749413237750000008e+03
-2.749195402780000222e+03
