-4.560000000000000251e-04 1.696000000000000025e-03 -8.378000000000000030e-03 -4.949999999999999973e-04 1.890000000000000133e-04 -8.333000000000000129e-03 -2.959999999999999849e-04 2.400000000000000061e-05 7.702999999999999778e-03 -1.649999999999999991e-04 -5.399999999999999798e-05 7.675999999999999664e-03 -3.640000000000000115e-04 1.681999999999999901e-03 -8.401000000000000481e-03 -3.629999999999999872e-04 1.930000000000000021e-04 -8.340000000000000191e-03 -2.420000000000000005e-04 3.600000000000000091e-05 7.674000000000000266e-03 -2.180000000000000134e-04 -1.010000000000000020e-04 7.649000000000000417e-03 -3.829999999999999854e-04 1.742999999999999975e-03 -8.387999999999999623e-03 -4.749999999999999990e-04 2.020000000000000040e-04 -8.312999999999999209e-03 -2.979999999999999793e-04 1.800000000000000046e-05 7.674000000000000266e-03 -3.240000000000000150e-04 -3.600000000000000091e-05 7.694000000000000318e-03 -4.409999999999999858e-04 1.005999999999999950e-03 -8.519000000000000530e-03 -4.769999999999999934e-04 1.487000000000000040e-03 -8.323999999999999802e-03 -2.280000000000000126e-04 -4.970000000000000459e-04 7.997999999999999901e-03 -3.069999999999999812e-04 -3.330000000000000169e-04 7.683999999999999858e-03 -3.719999999999999891e-04 9.840000000000000656e-04 -8.552999999999999839e-03 -3.780000000000000265e-04 1.464000000000000024e-03 -8.338999999999999191e-03 -2.590000000000000071e-04 -4.380000000000000213e-04 7.992000000000000839e-03 -3.040000000000000167e-04 -3.789999999999999966e-04 7.666000000000000071e-03 -2.979999999999999793e-04 9.820000000000000170e-04 -8.498999999999999611e-03 -3.640000000000000115e-04 1.449999999999999900e-03 -8.307999999999999413e-03 -2.180000000000000134e-04 -4.580000000000000195e-04 7.988999999999999574e-03 -3.299999999999999982e-04 -3.350000000000000113e-04 7.708999999999999707e-03 -3.849999999999999798e-04 7.399999999999999623e-05 -8.163000000000000117e-03 -4.110000000000000155e-04 9.979999999999999722e-04 -8.701000000000000401e-03 -3.220000000000000206e-04 -4.789999999999999879e-04 7.499999999999999722e-03 -2.739999999999999923e-04 5.700000000000000314e-05 7.891999999999999710e-03 -5.249999999999999676e-04 9.799999999999999684e-05 -8.234999999999999265e-03 -3.669999999999999760e-04 1.033999999999999980e-03 -8.744999999999999302e-03 -2.110000000000000059e-04 -4.640000000000000027e-04 7.459000000000000352e-03 -3.589999999999999984e-04 1.389999999999999905e-04 7.854999999999999136e-03 -4.169999999999999987e-04 4.199999999999999768e-05 -8.214000000000000815e-03 -3.409999999999999945e-04 1.033000000000000064e-03 -8.703999999999999931e-03 -3.860000000000000041e-04 -4.789999999999999879e-04 7.453999999999999689e-03 -3.429999999999999889e-04 9.799999999999999684e-05 7.894999999999999241e-03 -4.110000000000000155e-04 1.546000000000000065e-03 -8.141000000000000666e-03 -4.159999999999999744e-04 1.399999999999999877e-04 -8.174999999999999975e-03 -3.170000000000000075e-04 6.999999999999999895e-06 7.621000000000000170e-03 -3.280000000000000038e-04 -1.730000000000000038e-04 7.752000000000000210e-03 -4.609999999999999840e-04 1.502999999999999996e-03 -8.130000000000000074e-03 -4.730000000000000046e-04 1.969999999999999909e-04 -8.189999999999999364e-03 -2.300000000000000070e-04 1.399999999999999979e-05 7.649999999999999682e-03 -1.830000000000000029e-04 -1.399999999999999877e-04 7.741999999999999750e-03 -3.379999999999999758e-04 1.518000000000000035e-03 -8.144000000000000197e-03 -4.409999999999999858e-04 9.699999999999999963e-05 -8.205999999999999753e-03 -2.730000000000000222e-04 2.300000000000000002e-05 7.625999999999999966e-03 -1.869999999999999917e-04 -1.879999999999999890e-04 7.729999999999999892e-03 -3.910000000000000172e-04 1.132999999999999893e-03 -8.639000000000000845e-03 -4.270000000000000249e-04 1.874999999999999931e-03 -8.548000000000000043e-03 -2.640000000000000202e-04 -3.539999999999999853e-04 7.672000000000000000e-03 -3.350000000000000113e-04 -4.100000000000000047e-05 7.523000000000000173e-03 -3.750000000000000078e-04 1.067999999999999939e-03 -8.656999999999999765e-03 -3.860000000000000041e-04 1.904000000000000093e-03 -8.521000000000000796e-03 -2.449999999999999921e-04 -3.370000000000000057e-04 7.692000000000000053e-03 -2.730000000000000222e-04 -1.050000000000000044e-04 7.492999999999999661e-03 -3.750000000000000078e-04 1.082000000000000062e-03 -8.659000000000000030e-03 -3.959999999999999762e-04 1.886000000000000090e-03 -8.545000000000000512e-03 -1.700000000000000122e-04 -3.510000000000000208e-04 7.687000000000000256e-03 -3.139999999999999888e-04 -8.000000000000000654e-05 7.494999999999999926e-03 -4.380000000000000213e-04 2.290000000000000098e-04 -8.120000000000000481e-03 -3.820000000000000153e-04 9.139999999999999904e-04 -8.477000000000000160e-03 -2.999999999999999737e-04 -5.599999999999999509e-04 7.598999999999999852e-03 -3.620000000000000171e-04 1.599999999999999928e-05 7.853999999999999870e-03 -4.560000000000000251e-04 2.390000000000000089e-04 -8.111999999999999419e-03 -3.919999999999999873e-04 9.290000000000000297e-04 -8.462000000000000771e-03 -3.609999999999999928e-04 -5.990000000000000316e-04 7.641000000000000222e-03 -3.620000000000000171e-04 -1.200000000000000030e-05 7.861999999999999197e-03 -4.299999999999999894e-04 2.110000000000000059e-04 -8.104999999999999358e-03 -3.359999999999999814e-04 9.319999999999999942e-04 -8.460000000000000506e-03 -2.629999999999999959e-04 -5.379999999999999583e-04 7.620000000000000037e-03 -2.559999999999999884e-04 0.000000000000000000e+00 7.839000000000000482e-03 -4.099999999999999912e-04 1.546000000000000065e-03 -8.316999999999999740e-03 -3.899999999999999929e-04 1.440000000000000036e-04 -8.073000000000000315e-03 -1.900000000000000105e-04 -2.610000000000000015e-04 7.642000000000000355e-03 -2.239999999999999966e-04 -2.860000000000000129e-04 7.536000000000000164e-03 -3.950000000000000061e-04 1.551000000000000078e-03 -8.274000000000000105e-03 -5.039999999999999992e-04 1.090000000000000067e-04 -8.061999999999999722e-03 -3.579999999999999741e-04 -2.539999999999999940e-04 7.624999999999999833e-03 -2.959999999999999849e-04 -3.009999999999999980e-04 7.588000000000000127e-03 -4.350000000000000026e-04 1.546999999999999981e-03 -8.273000000000000839e-03 -4.510000000000000120e-04 9.000000000000000567e-05 -8.082999999999999907e-03 -2.610000000000000015e-04 -2.090000000000000115e-04 7.651999999999999948e-03 -1.959999999999999937e-04 -2.959999999999999849e-04 7.569000000000000207e-03 -3.220000000000000206e-04 1.041000000000000042e-03 -8.304000000000000617e-03 -3.800000000000000209e-04 1.402000000000000034e-03 -8.580000000000000820e-03 -2.239999999999999966e-04 -2.300000000000000070e-04 7.779999999999999589e-03 -2.860000000000000129e-04 -3.400000000000000244e-04 7.780999999999999722e-03 -4.009999999999999893e-04 1.012000000000000096e-03 -8.259000000000000716e-03 -4.319999999999999838e-04 1.438999999999999958e-03 -8.593999999999999209e-03 -2.010000000000000068e-04 -2.420000000000000005e-04 7.768999999999999864e-03 -3.429999999999999889e-04 -3.139999999999999888e-04 7.778000000000000191e-03 -3.770000000000000022e-04 1.020000000000000073e-03 -8.297999999999999821e-03 -4.119999999999999856e-04 1.433000000000000029e-03 -8.606000000000000802e-03 -2.629999999999999959e-04 -2.220000000000000022e-04 7.753999999999999608e-03 -3.009999999999999980e-04 -3.229999999999999907e-04 7.762999999999999935e-03 -4.150000000000000043e-04 2.460000000000000164e-04 -8.557000000000000370e-03 -3.260000000000000094e-04 1.134999999999999941e-03 -8.793999999999999734e-03 -2.979999999999999793e-04 -3.040000000000000167e-04 7.501999999999999988e-03 -3.200000000000000262e-04 2.739999999999999923e-04 7.738000000000000086e-03 -3.759999999999999779e-04 2.779999999999999811e-04 -8.489999999999999283e-03 -3.589999999999999984e-04 1.134999999999999941e-03 -8.755999999999999894e-03 -3.390000000000000001e-04 -2.829999999999999942e-04 7.494999999999999926e-03 -3.099999999999999999e-04 2.079999999999999872e-04 7.772000000000000262e-03 -5.419999999999999471e-04 2.700000000000000035e-04 -8.522000000000000061e-03 -4.339999999999999782e-04 1.173999999999999913e-03 -8.763999999999999221e-03 -2.799999999999999755e-04 -3.310000000000000225e-04 7.512999999999999713e-03 -3.589999999999999984e-04 2.359999999999999902e-04 7.721000000000000432e-03 3.069999999999999812e-04 1.330000000000000073e-04 6.849999999999999535e-04 1.019999999999999992e-04 4.519999999999999821e-04 -2.982999999999999974e-03 2.010000000000000068e-04 -8.210000000000000067e-04 5.343999999999999792e-03 5.300000000000000078e-05 -1.417000000000000074e-03 4.314000000000000126e-03 3.209999999999999963e-04 -1.450000000000000009e-04 -5.899999999999999754e-05 -6.000000000000000152e-06 1.544999999999999932e-03 -2.471999999999999805e-03 4.260000000000000006e-04 1.499999999999999869e-04 6.269999999999999532e-04 2.030000000000000012e-04 4.690000000000000158e-04 -3.092999999999999829e-03 9.500000000000000523e-05 -9.089999999999999773e-04 5.409999999999999878e-03 3.260000000000000094e-04 -1.271999999999999910e-03 4.307000000000000065e-03 3.469999999999999777e-04 -1.559999999999999972e-04 -4.399999999999999886e-05 3.150000000000000131e-04 1.611999999999999935e-03 -2.562000000000000041e-03 3.350000000000000113e-04 1.399999999999999877e-04 7.349999999999999763e-04 2.190000000000000106e-04 3.400000000000000244e-04 -3.119999999999999944e-03 1.299999999999999886e-04 -9.990000000000001049e-04 5.531000000000000326e-03 -1.399999999999999979e-05 -1.224999999999999960e-03 4.420000000000000318e-03 3.069999999999999812e-04 -1.140000000000000063e-04 1.350000000000000017e-04 1.510000000000000112e-04 1.453000000000000081e-03 -2.458000000000000115e-03 3.330000000000000169e-04 -3.730000000000000134e-04 -3.260000000000000094e-04 1.459999999999999981e-04 6.350000000000000392e-04 -3.906000000000000184e-03 1.600000000000000131e-04 -1.144000000000000052e-03 4.771000000000000067e-03 1.600000000000000131e-04 -8.840000000000000201e-04 4.161999999999999901e-03 2.860000000000000129e-04 -8.210000000000000067e-04 -1.214000000000000018e-03 1.050000000000000044e-04 6.589999999999999721e-04 -3.524999999999999922e-03 3.130000000000000187e-04 -4.200000000000000174e-04 -3.829999999999999854e-04 9.000000000000000567e-05 7.829999999999999504e-04 -3.873000000000000140e-03 9.299999999999999727e-05 -1.188999999999999953e-03 4.709999999999999777e-03 9.600000000000000243e-05 -9.820000000000000170e-04 4.168999999999999963e-03 2.599999999999999772e-04 -8.149999999999999693e-04 -1.268000000000000030e-03 2.869999999999999830e-04 7.020000000000000415e-04 -3.578000000000000017e-03 3.860000000000000041e-04 -4.130000000000000099e-04 -3.190000000000000019e-04 3.229999999999999907e-04 6.269999999999999532e-04 -3.850000000000000124e-03 2.090000000000000115e-04 -1.237000000000000035e-03 4.754999999999999678e-03 8.000000000000000654e-05 -8.959999999999999866e-04 4.022999999999999667e-03 3.609999999999999928e-04 -8.700000000000000051e-04 -1.129000000000000012e-03 3.229999999999999907e-04 6.599999999999999964e-04 -3.559999999999999797e-03 3.089999999999999756e-04 2.339999999999999958e-04 1.640000000000000019e-04 2.500000000000000052e-04 1.965999999999999866e-03 -2.779999999999999919e-03 2.730000000000000222e-04 -1.856000000000000011e-03 4.497000000000000129e-03 1.849999999999999973e-04 -1.843999999999999936e-03 5.904999999999999659e-03 3.589999999999999984e-04 3.240000000000000150e-04 4.530000000000000064e-04 1.079999999999999960e-04 1.335999999999999948e-03 -4.311999999999999861e-03 3.310000000000000225e-04 1.910000000000000077e-04 -1.699999999999999987e-05 1.369999999999999961e-04 1.922000000000000097e-03 -2.775999999999999822e-03 2.269999999999999882e-04 -1.745000000000000023e-03 4.454999999999999759e-03 2.300000000000000070e-04 -1.734000000000000081e-03 5.875000000000000014e-03 3.719999999999999891e-04 3.620000000000000171e-04 3.609999999999999928e-04 2.039999999999999984e-04 1.360000000000000098e-03 -4.342000000000000373e-03 3.429999999999999889e-04 2.620000000000000258e-04 -4.699999999999999724e-05 2.599999999999999772e-04 1.935000000000000088e-03 -2.713999999999999833e-03 -8.299999999999999815e-05 -1.758999999999999930e-03 4.453000000000000361e-03 5.899999999999999754e-05 -1.639999999999999965e-03 5.938999999999999835e-03 2.869999999999999830e-04 4.180000000000000230e-04 4.560000000000000251e-04 3.170000000000000075e-04 1.219000000000000031e-03 -4.264999999999999694e-03 3.409999999999999945e-04 -5.370000000000000424e-04 -3.330000000000000169e-04 3.170000000000000075e-04 5.169999999999999899e-04 -3.207999999999999914e-03 1.399999999999999979e-05 -2.252999999999999794e-03 4.063999999999999904e-03 8.899999999999999491e-05 -5.509999999999999490e-04 3.526000000000000054e-03 3.260000000000000094e-04 -1.026000000000000002e-03 4.000000000000000327e-05 8.399999999999999535e-05 1.441000000000000007e-03 -3.344000000000000184e-03 2.620000000000000258e-04 -5.119999999999999768e-04 -3.200000000000000262e-04 2.439999999999999949e-04 5.439999999999999957e-04 -3.259999999999999877e-03 2.290000000000000098e-04 -2.132000000000000214e-03 4.132000000000000256e-03 1.129999999999999955e-04 -6.220000000000000485e-04 3.363000000000000104e-03 3.640000000000000115e-04 -1.108000000000000044e-03 1.200000000000000030e-05 9.500000000000000523e-05 1.396000000000000105e-03 -3.452000000000000207e-03 3.170000000000000075e-04 -4.879999999999999898e-04 -3.829999999999999854e-04 1.649999999999999991e-04 5.270000000000000162e-04 -3.272999999999999868e-03 1.129999999999999955e-04 -2.134000000000000046e-03 4.081999999999999691e-03 2.730000000000000222e-04 -5.240000000000000517e-04 3.425999999999999792e-03 2.910000000000000260e-04 -1.077000000000000049e-03 -1.019999999999999992e-04 3.069999999999999812e-04 1.281000000000000021e-03 -3.387999999999999953e-03 3.040000000000000167e-04 -2.149999999999999947e-04 1.269999999999999970e-04 1.000000000000000048e-04 9.420000000000000205e-04 -3.723999999999999880e-03 4.399999999999999886e-05 -1.382999999999999898e-03 4.140999999999999716e-03 1.160000000000000007e-04 -2.500000000000000052e-03 3.402000000000000076e-03 2.090000000000000115e-04 -5.699999999999999772e-04 4.769999999999999934e-04 1.410000000000000120e-04 1.670000000000000043e-03 -3.046999999999999795e-03 3.119999999999999944e-04 -2.159999999999999919e-04 1.510000000000000112e-04 1.589999999999999888e-04 9.970000000000000563e-04 -3.746000000000000198e-03 1.730000000000000038e-04 -1.552999999999999910e-03 4.082999999999999824e-03 9.899999999999999404e-05 -2.518999999999999972e-03 3.425999999999999792e-03 3.550000000000000096e-04 -5.950000000000000427e-04 4.979999999999999618e-04 2.130000000000000003e-04 1.623000000000000094e-03 -3.067999999999999981e-03 3.959999999999999762e-04 -2.229999999999999994e-04 8.100000000000000375e-05 1.930000000000000021e-04 9.640000000000000131e-04 -3.710000000000000190e-03 2.530000000000000239e-04 -1.355000000000000085e-03 4.139000000000000318e-03 1.969999999999999909e-04 -2.596999999999999916e-03 3.425999999999999792e-03 3.190000000000000019e-04 -6.250000000000000130e-04 5.230000000000000274e-04 2.349999999999999930e-04 1.639999999999999965e-03 -3.065000000000000016e-03 3.989999999999999949e-04 7.230000000000000098e-04 7.839999999999999747e-04 2.840000000000000185e-04 1.000000000000000021e-03 -3.602999999999999866e-03 1.299999999999999920e-05 -6.329999999999999906e-04 4.030999999999999861e-03 1.579999999999999916e-04 -1.379000000000000017e-03 5.400000000000000286e-03 2.509999999999999753e-04 5.130000000000000011e-04 -1.640000000000000019e-04 2.829999999999999942e-04 1.497999999999999983e-03 -4.223000000000000191e-03 2.180000000000000134e-04 6.750000000000000357e-04 9.359999999999999831e-04 4.800000000000000122e-05 9.690000000000000262e-04 -3.619999999999999954e-03 1.779999999999999898e-04 -6.070000000000000092e-04 4.017999999999999870e-03 -6.000000000000000152e-06 -1.487999999999999956e-03 5.394000000000000357e-03 3.289999999999999739e-04 5.140000000000000254e-04 -1.399999999999999877e-04 2.449999999999999921e-04 1.533999999999999990e-03 -4.166000000000000432e-03 3.200000000000000262e-04 6.599999999999999964e-04 8.549999999999999658e-04 1.740000000000000010e-04 1.075999999999999917e-03 -3.612999999999999892e-03 2.159999999999999919e-04 -6.250000000000000130e-04 4.035000000000000392e-03 1.830000000000000029e-04 -1.564000000000000069e-03 5.387000000000000295e-03 4.620000000000000083e-04 5.190000000000000386e-04 -2.339999999999999958e-04 1.399999999999999877e-04 1.459999999999999926e-03 -4.172000000000000361e-03 4.310000000000000137e-04 -1.029999999999999964e-04 -6.549999999999999833e-04 2.719999999999999979e-04 1.778999999999999982e-03 -3.350000000000000113e-03 1.350000000000000017e-04 -1.482000000000000027e-03 4.752000000000000147e-03 2.700000000000000035e-04 -1.319999999999999993e-03 3.825999999999999974e-03 3.510000000000000208e-04 2.079999999999999872e-04 5.270000000000000162e-04 1.769999999999999926e-04 1.296000000000000060e-03 -3.762000000000000153e-03 2.469999999999999865e-04 -1.240000000000000054e-04 -6.400000000000000524e-04 2.010000000000000068e-04 1.701999999999999954e-03 -3.294000000000000053e-03 1.090000000000000067e-04 -1.435999999999999993e-03 4.708999999999999644e-03 -5.199999999999999680e-05 -1.312000000000000015e-03 3.775000000000000144e-03 2.349999999999999930e-04 2.000000000000000096e-04 4.960000000000000216e-04 1.830000000000000029e-04 1.221000000000000080e-03 -3.576000000000000185e-03 3.350000000000000113e-04 -1.430000000000000064e-04 -5.270000000000000162e-04 2.120000000000000031e-04 1.680999999999999986e-03 -3.210000000000000180e-03 2.730000000000000222e-04 -1.453999999999999997e-03 4.623999999999999638e-03 2.420000000000000005e-04 -1.364999999999999894e-03 3.723000000000000181e-03 3.869999999999999742e-04 2.120000000000000031e-04 4.789999999999999879e-04 1.599999999999999928e-05 1.201000000000000028e-03 -3.739999999999999835e-03 3.789999999999999966e-04 9.430000000000000448e-04 9.190000000000000035e-04 1.779999999999999898e-04 5.339999999999999695e-04 -4.360000000000000160e-03 1.930000000000000021e-04 -4.409999999999999858e-04 5.830000000000000113e-03 8.700000000000000051e-05 -1.379999999999999933e-03 4.680000000000000132e-03 3.139999999999999888e-04 -3.980000000000000248e-04 -8.899999999999999491e-05 1.649999999999999991e-04 1.755000000000000050e-03 -3.023000000000000079e-03 2.700000000000000035e-04 9.070000000000000371e-04 9.399999999999999719e-04 1.320000000000000101e-04 4.889999999999999599e-04 -4.497000000000000129e-03 1.730000000000000038e-04 -4.809999999999999823e-04 5.910999999999999588e-03 1.600000000000000131e-04 -1.340000000000000045e-03 4.734000000000000360e-03 2.300000000000000070e-04 -3.680000000000000003e-04 -1.700000000000000122e-04 2.629999999999999959e-04 1.721000000000000090e-03 -2.870000000000000155e-03 3.200000000000000262e-04 1.020999999999999989e-03 8.419999999999999750e-04 1.219999999999999974e-04 4.249999999999999763e-04 -4.394000000000000336e-03 1.890000000000000133e-04 -3.759999999999999779e-04 5.900999999999999995e-03 1.510000000000000112e-04 -1.402000000000000034e-03 4.733000000000000228e-03 3.209999999999999963e-04 -3.950000000000000061e-04 -2.329999999999999986e-04 2.259999999999999910e-04 1.796000000000000070e-03 -2.877999999999999916e-03 2.750000000000000166e-04 -6.459999999999999814e-04 -7.499999999999999343e-05 1.990000000000000124e-04 1.459999999999999981e-04 -4.347000000000000169e-03 1.200000000000000030e-04 -1.752000000000000085e-03 4.382999999999999743e-03 1.499999999999999869e-04 -1.265999999999999981e-03 6.648000000000000263e-03 3.660000000000000059e-04 -5.150000000000000498e-04 -6.390000000000000280e-04 2.300000000000000070e-04 3.499999999999999693e-05 -5.448999999999999851e-03 3.719999999999999891e-04 -6.539999999999999590e-04 -4.199999999999999768e-05 3.809999999999999910e-04 7.899999999999999579e-05 -4.240999999999999978e-03 1.299999999999999886e-04 -1.891000000000000103e-03 4.439000000000000237e-03 2.110000000000000059e-04 -1.281000000000000021e-03 6.653000000000000060e-03 3.130000000000000187e-04 -5.689999999999999529e-04 -4.650000000000000270e-04 1.420000000000000092e-04 9.000000000000000567e-05 -5.487999999999999823e-03 2.259999999999999910e-04 -5.999999999999999474e-04 -3.000000000000000076e-06 1.060000000000000016e-04 -1.140000000000000063e-04 -4.334000000000000179e-03 1.569999999999999944e-04 -1.894000000000000067e-03 4.433000000000000308e-03 1.350000000000000017e-04 -1.288999999999999998e-03 6.549000000000000134e-03 3.069999999999999812e-04 -5.609999999999999752e-04 -5.609999999999999752e-04 1.029999999999999964e-04 9.100000000000000287e-05 -5.466000000000000372e-03