3.723000616788138106e-03 -6.999606909938827012e-06 1.116439999794565652e-01 3.780000199310598347e-03 -2.505999712347608925e-03 1.771999981638130604e-03 -4.040000148333332459e-04 2.469999701415923564e-04 6.970000019832991870e-04 3.816999849692019608e-03 1.754000285486279932e-03 -3.198000022821317640e-03 3.141600103831856949e-02 -1.556699764915649500e-02 -2.518500015786226745e-02 3.184099888192304384e-02 1.659100243288117241e-02 2.476599980766992087e-02 2.257999934897583078e-03 9.540001720486847477e-04 1.276999986583238081e-03 1.941000054882516083e-03 -7.679998537810163754e-04 -5.800000099469023547e-04 1.088000111791404250e-03 -1.471999917630369787e-03 8.399999546474341209e-05 1.090000152942008490e-04 -1.749999913837203250e-04 3.729999995731391555e-04 1.535999913082375249e-03 1.245000117478598694e-03 1.311999990277900804e-03 6.680000138782327384e-04 -1.599999491573490958e-04 3.219999964725568176e-04 9.500001450362577685e-05 -2.259999932835981423e-04 -4.690000002986401974e-04 -6.900002131661036589e-05 3.389999955636318436e-04 7.830000000422508754e-04 1.880000145348497396e-04 -1.969999858474368363e-04 -6.600000084095416955e-05 -5.400000543101853706e-04 6.429999581318146659e-04 -1.028999997661555641e-03 -1.093100021726456789e-01 2.880799173396221199e-02 1.107000574599768935e-03 8.657000202162454944e-03 -1.337999326997399516e-03 1.829199995355110589e-02 -2.609999296597403430e-04 5.130000000102951513e-04 1.977200000092825885e-02 3.284999816871372880e-03 4.183000272555275310e-03 2.413699997768897418e-02 1.895000417600288750e-03 -4.025999836211665607e-03 2.049199999356135157e-02 2.424999656798286930e-03 5.863000201538966227e-03 1.815599998075793572e-02 1.189000035583785437e-03 1.000000110049745162e-03 2.014799999243801348e-02 3.760002216539943989e-04 -1.514999952186804827e-03 1.939799999943783021e-02 6.600017383664133518e-05 -8.509999751976750695e-04 1.983300000048573292e-02 -1.413999885677117135e-03 -6.000086335352840503e-06 2.062900000781106927e-02 -1.181999856611948459e-03 -5.200000705641357607e-04 1.885200000704388701e-02 -1.389999668597104599e-03 -2.833000083927884188e-03 2.122200001050241619e-02 2.767300107905610457e-02 -1.421299790633767657e-02 7.469998614460706537e-04 1.669000217572757898e-03 -1.465999854464805499e-03 1.932999999225171531e-02 -7.799997356145771160e-05 1.061000013406130683e-03 1.932699999937073990e-02 -2.331299882179511951e-02 -1.527100175895988385e-02 4.213000143938233459e-03 -1.610099852927353303e-02 -2.125600124249087119e-02 -2.479599988989268644e-02 -2.301000115384991152e-03 1.799980534097711806e-05 -2.065699998731678963e-02 -4.090000862304385009e-04 -4.250000523536891228e-04 -2.144499999731785608e-02 3.271400025790550947e-02 -7.070997575935396469e-03 -5.016000017351349843e-02 -3.912999892269959645e-03 -2.828000315150591172e-03 -1.923099997557598320e-02 -2.633999920285124297e-03 -2.732000222175269555e-03 -2.299099998273177251e-02 2.459999891233466841e-03 -1.999833659405070763e-06 -1.973200001357684752e-02 -1.434000206894144990e-03 1.343999872500621032e-03 -1.906699999342701887e-02 -6.400015428523108600e-05 5.059999741652674741e-04 -2.101800000015215802e-02 7.259999652570394042e-04 -1.018999965325680318e-03 -2.025600000298955969e-02 -6.490003347842539759e-04 2.887999929858630667e-03 -2.108099999930236959e-02 -1.256000034396357245e-03 -1.080000115996982649e-03 -2.102899999198827238e-02 -2.543000288706143315e-03 2.417999788520780891e-03 -1.917299998837828853e-02 -3.040001493176077200e-04 4.689999564065644054e-04 -2.062499999879043727e-02 2.457999858539363074e-03 4.670001666917681575e-04 -1.922900001403428025e-02 1.486997658141033310e-03 2.822400007495428492e-02 -3.755000003640031336e-02
3.721000616556304191e-03 -6.999607103152171912e-06 1.116019999794676115e-01 3.777000199061628701e-03 -2.502999712578495451e-03 1.767999981651693659e-03 -4.030000146710330353e-04 2.449999702192203702e-04 6.990000019797769880e-04 3.813999849865359719e-03 1.752000285263384831e-03 -3.194000022802760339e-03 3.139700103782780416e-02 -1.555999765058647781e-02 -2.517800015776438388e-02 3.182399888268321736e-02 1.658000243158247455e-02 2.475299980777474762e-02 2.255999935037803980e-03 9.520001718954265420e-04 1.274999986596275781e-03 1.939000054899075488e-03 -7.679998539292802635e-04 -5.770000099358627184e-04 1.086000111629103907e-03 -1.469999917783628004e-03 8.199999547378536565e-05 1.100000152185705890e-04 -1.739999913080900705e-04 3.729999995666204442e-04 1.534999913071335336e-03 1.245000117400970685e-03 1.309999990283420646e-03 6.660000139593829456e-04 -1.609999493076107321e-04 3.229999964845953349e-04 9.600001441695580435e-05 -2.249999932099656388e-04 -4.710000003051589032e-04 -6.800002139776048895e-05 3.399999956382632497e-04 7.820000000357321939e-04 1.870000144702592111e-04 -1.959999859210693725e-04 -6.400000083643318761e-05 -5.400000543046654805e-04 6.429999581328135413e-04 -1.027999997661555726e-03 -1.092720021711440920e-01 2.878799173683416548e-02 1.105000574409992307e-03 8.656000202171847471e-03 -1.338999327085016195e-03 1.827999995355762686e-02 -2.649999294880481357e-04 5.099999996977855115e-04 1.976200000095333295e-02 3.282999817096615616e-03 4.179000272390031960e-03 2.412299997770400717e-02 1.895000417495411489e-03 -4.025999836230644349e-03 2.047299999356135339e-02 2.426999657082601000e-03 5.858000201673247039e-03 1.813899998075189229e-02 1.192000035657768105e-03 9.980001102626516289e-04 2.013399999242345209e-02 3.740002214955663378e-04 -1.513999952353048233e-03 1.938299999944787314e-02 6.400017352695271892e-05 -8.479999753639187515e-04 1.981800000049377397e-02 -1.413999885889096007e-03 -4.000086346340491423e-06 2.061800000780907374e-02 -1.177999856818407560e-03 -5.180000702716035460e-04 1.884200000701980945e-02 -1.388999668998983300e-03 -2.829000083870234026e-03 2.120400001049290231e-02 2.765500107843450392e-02 -1.420499790770201991e-02 7.439998615374369484e-04 1.667000217128368532e-03 -1.460999854628052506e-03 1.931799999225775749e-02 -7.799997369228651751e-05 1.062000013396141845e-03 1.931699999936974110e-02 -2.329399882262704960e-02 -1.526000175752290772e-02 4.213000143822368676e-03 -1.608499853002818419e-02 -2.124500124126680115e-02 -2.478199988999199230e-02 -2.293000115178531976e-03 1.599980595600794994e-05 -2.064699998735895076e-02 -4.100000861051295280e-04 -4.260000524203294710e-04 -2.143599999731133840e-02 3.269400025772994239e-02 -7.066997577425027273e-03 -5.013700017340709525e-02 -3.911999892354980912e-03 -2.826000315062974794e-03 -1.921899997558349990e-02 -2.623999920477248365e-03 -2.728000221398989376e-03 -2.297099998279096209e-02 2.460999891526596210e-03 -4.999833571788282624e-06 -1.972000001357937168e-02 -1.432000206222864636e-03 1.335999872663868075e-03 -1.905499999343006345e-02 -6.400015427254365731e-05 5.069999741812495058e-04 -2.100200000015315857e-02 7.289999648805359613e-04 -1.012999965084805361e-03 -2.024200000301211097e-02 -6.470003346423855309e-04 2.886999930021877554e-03 -2.106899999931241205e-02 -1.256000034156779140e-03 -1.082000115981000691e-03 -2.101299999198627880e-02 -2.537000288628865358e-03 2.417999788988546908e-03 -1.915899998841140775e-02 -3.020001495538904529e-04 4.729999565698114142e-04 -2.061299999880547226e-02 2.452999858529971051e-03 4.680001663256033468e-04 -1.921700001400768187e-02 1.483997659764035642e-03 2.820400007474737139e-02 -3.753000003636378090e-02
3.717000616092635927e-03 -6.999607489578861713e-06 1.115179999794896903e-01 3.775000199056108979e-03 -2.502999712730754733e-03 1.766999981662733307e-03 -4.010000146655132050e-04 2.449999703714797602e-04 7.000000019687373405e-04 3.808999850033179240e-03 1.750000284888230014e-03 -3.191000022773163389e-03 3.135900103656581034e-02 -1.554199765344244782e-02 -2.516000015757260955e-02 3.178499888415553531e-02 1.655900242861191654e-02 2.473199980801099943e-02 2.257999934978733442e-03 9.530001720496835988e-04 1.277999986584237198e-03 1.939000054823445231e-03 -7.669998539292802392e-04 -5.770000099368615938e-04 1.084000111715773896e-03 -1.470999917932890901e-03 8.399999548582394795e-05 1.100000149916798172e-04 -1.709999913080900789e-04 3.729999995636237636e-04 1.534999913146965593e-03 1.244000117400970769e-03 1.309999990284419413e-03 6.680000139593828858e-04 -1.609999491563502175e-04 3.229999964735556632e-04 9.500001449810591386e-05 -2.259999932845970178e-04 -4.700000002986401675e-04 -6.700002138672077931e-05 3.399999957158912579e-04 7.840000000302122440e-04 1.880000144001488141e-04 -1.949999858444402426e-04 -6.300000084295191531e-05 -5.410000543046655048e-04 6.429999580571832841e-04 -1.027999997656035835e-03 -1.092190021690137569e-01 2.876099174085854429e-02 1.121000574144409567e-03 8.649000202111130353e-03 -1.338999327625415734e-03 1.826899995359626550e-02 -2.629999294289774459e-04 5.089999998460493754e-04 1.975900000094329284e-02 3.285999817187157737e-03 4.177000272605934511e-03 2.411199997768944878e-02 1.896000417364582680e-03 -4.024999836165002280e-03 2.046299999355483124e-02 2.426999657281892105e-03 5.855000201668252371e-03 1.813399998075488836e-02 1.193000035549018640e-03 9.990001103322887661e-04 2.012799999241693394e-02 3.740002214845266119e-04 -1.513999952355045983e-03 1.938099999944787113e-02 6.300017341268349124e-05 -8.469999754465411127e-04 1.981100000049829460e-02 -1.411999886073475813e-03 -2.000086201073243728e-06 2.061200000779603303e-02 -1.177999856927156941e-03 -5.170000702775967745e-04 1.883600000701880772e-02 -1.387999669194402369e-03 -2.827000083802594724e-03 2.119600001048538296e-02 2.763000107738284444e-02 -1.418999790957779263e-02 7.589998616604502410e-04 1.666000217176399423e-03 -1.461999854708677165e-03 1.931299999226427852e-02 -7.699997370884610929e-05 1.062000013468775584e-03 1.931399999936422168e-02 -2.326699882377641568e-02 -1.524400175546990546e-02 4.224000143657351096e-03 -1.606099853125153229e-02 -2.122700123942669950e-02 -2.475699989014245109e-02 -2.288000115187924406e-03 1.699980634614575934e-05 -2.063499998738755128e-02 -4.090000859687808890e-04 -4.270000523337116080e-04 -2.142499999731585850e-02 3.266900025728497470e-02 -7.058997579286816447e-03 -5.010800017327708689e-02 -3.905999892569185505e-03 -2.822000314593211146e-03 -1.920299997562061739e-02 -2.608999921139713851e-03 -2.718000220247554499e-03 -2.295399998288374932e-02 2.461999891570755029e-03 -4.999833488167008961e-06 -1.971200001358489051e-02 -1.423000205758043419e-03 1.329999873346538212e-03 -1.905299999347375220e-02 -6.400015430401507837e-05 5.079999741892405338e-04 -2.099400000015415671e-02 7.289999645575831423e-04 -1.007999965074816593e-03 -2.023200000301710738e-02 -6.470003345005170261e-04 2.885999930033864361e-03 -2.105699999931141125e-02 -1.253000033972399537e-03 -1.084000115748116498e-03 -2.100699999200084100e-02 -2.534000288282185244e-03 2.413999789223428803e-03 -1.915099998842397649e-02 -3.000001494341013515e-04 4.719999567290629624e-04 -2.060499999881551178e-02 2.446999858531618676e-03 4.690001658858061382e-04 -1.920300001397556161e-02 1.482997661955088621e-03 2.817700007469870968e-02 -3.750300003633128682e-02
3.718000615290032850e-03 -4.999607531816083062e-06 1.113999999794821755e-01 3.770000198596807316e-03 -2.496999713109905074e-03 1.765999981684339372e-03 -3.990000145954027892e-04 2.439999705217414292e-04 6.990000019586964115e-04 3.806999850038699298e-03 1.750000284737968483e-03 -3.190000022762123910e-03 3.130800103481305025e-02 -1.551699765727461953e-02 -2.513500015731607098e-02 3.173899888583266854e-02 1.653500242510795235e-02 2.470699980828888406e-02 2.251999935329285132e-03 9.480001715909077732e-04 1.272999986622350577e-03 1.936000054963666218e-03 -7.689998541581688106e-04 -5.790000099183042212e-04 1.084000111413252867e-03 -1.466999917932890803e-03 8.399999548182844611e-05 1.100000155155717686e-04 -1.779999913090889348e-04 3.719999995706159217e-04 1.531999913065815698e-03 1.245000117173080930e-03 1.308999990299980183e-03 6.620000137324921850e-04 -1.579999496101317424e-04 3.229999965036781605e-04 9.500001466040614083e-05 -2.279999932825992612e-04 -4.680000002966424222e-04 -6.800002138672077651e-05 3.399999956402610006e-04 7.840000000357321341e-04 1.850000144702592167e-04 -1.959999860723298870e-04 -6.400000082539347517e-05 -5.380000542235152845e-04 6.419999582850729070e-04 -1.026999997671596389e-03 -1.091580021661436861e-01 2.872399174548498010e-02 1.134000573844656714e-03 8.651000202089051058e-03 -1.338999327478150722e-03 1.826499995358522518e-02 -2.629999294676164056e-04 5.089999998390572471e-04 1.975200000094329278e-02 3.291999817423440448e-03 4.173000273047729018e-03 2.409999997766032465e-02 1.900000417255833397e-03 -4.023999835868474588e-03 2.045699999353175341e-02 2.431999657270852554e-03 5.855000202044405473e-03 1.813199998072728691e-02 1.192000035591529641e-03 9.980001102506651234e-04 2.012199999242345397e-02 3.760002213647374992e-04 -1.512999952211776774e-03 1.937299999943583456e-02 6.300017346071447419e-05 -8.479999754515355143e-04 1.980600000049929574e-02 -1.411999886047524350e-03 -3.000086210063132789e-06 2.060300000779703364e-02 -1.175999857111536531e-03 -5.150000701323295725e-04 1.883000000700577048e-02 -1.387999669541082302e-03 -2.823000083810585630e-03 2.118800001048138509e-02 2.760300107615784940e-02 -1.417299791160882283e-02 7.699998617925054656e-04 1.666000217132240519e-03 -1.461999854716668169e-03 1.930499999226427746e-02 -7.299997373644538125e-05 1.062000013766302127e-03 1.930899999934214406e-02 -2.323699882491474245e-02 -1.522800175318801165e-02 4.237000143475773244e-03 -1.603199853250800513e-02 -2.120900123721444416e-02 -2.473799989032050492e-02 -2.282000115095734333e-03 1.599980680292393889e-05 -2.063199998741967189e-02 -4.060000861145214948e-04 -4.250000521058219121e-04 -2.142399999733441557e-02 3.264100025615381678e-02 -7.041997581376495050e-03 -5.008000017313951613e-02 -3.899999892963895449e-03 -2.817000314142426541e-03 -1.920599997565872880e-02 -2.590999921958958910e-03 -2.706000218870228003e-03 -2.293799998299509563e-02 2.466999891722015340e-03 -6.999833110015714498e-06 -1.971200001361049156e-02 -1.403000205045899697e-03 1.319999874851152328e-03 -1.906099999357416253e-02 -6.400015388722479174e-05 5.029999741962326489e-04 -2.098700000014916411e-02 7.279999645631030081e-04 -1.007999965149447867e-03 -2.023100000301158649e-02 -6.450003346517774920e-04 2.887999930185124707e-03 -2.105699999932444944e-02 -1.251000033944800255e-03 -1.084000115591861714e-03 -2.100199999201187925e-02 -2.531000288033215164e-03 2.410999789454314896e-03 -1.914699998843753803e-02 -3.000001494175417896e-04 4.719999567320595888e-04 -2.060199999881551225e-02 2.442999858677359203e-03 4.670001655822862393e-04 -1.920400001395148118e-02 1.483997664653474323e-03 2.814300007479731552e-02 -3.748000003630284904e-02
3.715000614126991001e-03 -3.999607955485606482e-06 1.112029999794977297e-01 3.761000198428987237e-03 -2.494999713793573642e-03 1.762999981732020450e-03 -4.010000147632228600e-04 2.459999703674842827e-04 6.960000019677384762e-04 3.792999850200999470e-03 1.748000283681142583e-03 -3.188000022682847649e-03 3.122700103184798681e-02 -1.547399766334872986e-02 -2.508300015691191515e-02 3.165199888920348925e-02 1.648700241848117046e-02 2.465999980881706036e-02 2.243999935631805966e-03 9.440001709858657263e-04 1.272999986670504983e-03 1.937000054727383352e-03 -7.649998540705518421e-04 -5.670000099278195383e-04 1.086000111029581739e-03 -1.461999917782629260e-03 8.299999546579435916e-05 1.060000148404193003e-04 -1.689999916106111136e-04 3.729999995837054647e-04 1.529999913259587297e-03 1.242000117015827198e-03 1.302999990314016336e-03 6.630000135757116962e-04 -1.559999495355003662e-04 3.219999964961605494e-04 9.600001407744350478e-05 -2.199999932029735245e-04 -4.640000003101533272e-04 -6.800002140328033839e-05 3.399999956372643743e-04 7.810000000357321696e-04 1.850000148058993695e-04 -1.999999860663366231e-04 -5.800000082139796978e-05 -5.330000539966246080e-04 6.389999586632242289e-04 -1.026999997696199105e-03 -1.090590021617759142e-01 2.866799175299634961e-02 1.158000573354128022e-03 8.641000202445120806e-03 -1.343999328238448809e-03 1.826099995364541956e-02 -2.639999293014440697e-04 5.059999997524393953e-04 1.974100000095181315e-02 3.299999817562013389e-03 4.170000273636789538e-03 2.408399997761916447e-02 1.908000417292824618e-03 -4.024999835270424466e-03 2.044999999348859343e-02 2.434999657870374687e-03 5.847000202270297500e-03 1.813099998071872332e-02 1.187000035455181013e-03 9.990001098615262313e-04 2.011099999245005363e-02 3.780002214017288455e-04 -1.513999952067508195e-03 1.936599999942579392e-02 6.400017334092535082e-05 -8.469999753838962364e-04 1.979800000049277559e-02 -1.411999885724571531e-03 -8.000086220051885272e-06 2.059300000780202658e-02 -1.171999856880773759e-03 -5.190000698427939133e-04 1.881700000698768860e-02 -1.389999670142252073e-03 -2.816000083974831356e-03 2.117500001048543481e-02 2.755600107364326867e-02 -1.413799791513947052e-02 7.939998620169779657e-04 1.663000216866710769e-03 -1.458999854950551213e-03 1.929799999227783946e-02 -7.199997418635480800e-05 1.067000013828946908e-03 1.929599999933162904e-02 -2.317699882711189360e-02 -1.519800174863721043e-02 4.250000143114615082e-03 -1.598999853455224454e-02 -2.118000123401100887e-02 -2.471099989058130747e-02 -2.281000115099606537e-03 1.699980689153959468e-05 -2.061899998742618839e-02 -4.040000862475747368e-04 -4.220000519375805502e-04 -2.140699999734844983e-02 3.259700025446342353e-02 -7.015997584654281964e-03 -5.003000017292261181e-02 -3.889999893362478499e-03 -2.811000313376135068e-03 -1.919599997571992331e-02 -2.565999922944376538e-03 -2.691000216952501353e-03 -2.291099998314807470e-02 2.472999891897002898e-03 -7.999832638254381002e-06 -1.969400001364261105e-02 -1.376000203911446158e-03 1.304999876893169234e-03 -1.906099999370821502e-02 -6.400015351846550160e-05 4.989999742082191657e-04 -2.097500000014516919e-02 7.269999647325708306e-04 -1.008999965208097266e-03 -2.021400000300506775e-02 -6.430003344011595576e-04 2.885999930354365365e-03 -2.103899999933349016e-02 -1.243000033699702064e-03 -1.086000114969838714e-03 -2.098499999205404032e-02 -2.528000287513195408e-03 2.404999789693192461e-03 -1.913499998844810090e-02 -3.000001491614040137e-04 4.699999567510382281e-04 -2.058299999881351566e-02 2.440999858867259117e-03 4.650001654380178586e-04 -1.919700001393844294e-02 1.484997668985901667e-03 2.808900007491789419e-02 -3.743500003625443301e-02
3.717000613132345494e-03 -7.999608038961149639e-06 1.109679999794906807e-01 3.762000194942827658e-03 -2.449999713732926507e-03 1.747999981681551017e-03 -4.010000139770965961e-04 2.339999703455090561e-04 6.740000019797249891e-04 3.779999852510193981e-03 1.719000282718926003e-03 -3.167000022582122480e-03 3.113600102752873619e-02 -1.541199767016415874e-02 -2.501600015647153716e-02 3.151199889410347121e-02 1.641900240784898227e-02 2.461599980965776049e-02 2.303999936657510818e-03 9.300001755176880028e-04 1.266999986353297639e-03 1.905000054613114387e-03 -7.639998564977123954e-04 -5.740000097521830765e-04 1.086000110629350892e-03 -1.456999917786624748e-03 7.899999546079996594e-05 9.500001463008813469e-05 -1.659999924395473255e-04 3.759999996414272144e-04 1.521999911690135720e-03 1.261000116386812048e-03 1.278999990339196782e-03 6.230000170657433141e-04 -2.019999525587128043e-04 3.239999967629031180e-04 1.070000132808541848e-04 -2.109999923920171316e-04 -4.850000003798616405e-04 -4.000002009548661157e-05 3.229999977589071542e-04 7.849999998981570942e-04 1.760000144796512245e-04 -1.969999867649887323e-04 -7.600000077471590759e-05 -5.270000541793565469e-04 6.419999591249968491e-04 -1.018999997732314769e-03 -1.089350021555748199e-01 2.858899176241545478e-02 1.199000572748577277e-03 8.641000203869408577e-03 -1.363999328254430869e-03 1.824499995366539798e-02 -2.699999303083645656e-04 5.179999992806779514e-04 1.972300000097294490e-02 3.318999817990420185e-03 4.162000275041800000e-03 2.405199997752227592e-02 1.911000416815315925e-03 -4.019999835061513656e-03 2.043199999346703710e-02 2.436999657208486440e-03 5.854000202397584632e-03 1.810699998070068942e-02 1.203000034957240737e-03 1.005000111063619273e-03 2.010299999235574259e-02 3.820002210037224994e-04 -1.510999951795952449e-03 1.933499999940072045e-02 6.800017369370178213e-05 -8.539999751133393923e-04 1.976600000047768965e-02 -1.412999886521160804e-03 9.999136833414143420e-07 2.057200000779855695e-02 -1.172999857389753686e-03 -5.130000699284129962e-04 1.880700000698721369e-02 -1.395999670409429775e-03 -2.814000084449589777e-03 2.115400001051655557e-02 2.748900107163379514e-02 -1.410799792015975281e-02 8.409998623568420116e-04 1.666000216481392003e-03 -1.454999854738643367e-03 1.928299999225728881e-02 -6.699997283769760636e-05 1.048000014191116267e-03 1.927999999932300534e-02 -2.310599882985172118e-02 -1.515900174322950579e-02 4.288000142683749509e-03 -1.592899853669971569e-02 -2.115000122937558610e-02 -2.468899989094798519e-02 -2.283000115363488600e-03 2.099980674727120397e-05 -2.061199998741914535e-02 -4.040000852848131280e-04 -4.340000519275917078e-04 -2.139699999733646676e-02 3.254200025377995686e-02 -7.001997588746023543e-03 -4.996200017263300458e-02 -3.894999893220610441e-03 -2.812000313742299331e-03 -1.918399997569132306e-02 -2.522999924551972469e-03 -2.665000213635473729e-03 -2.284599998341139970e-02 2.469999890777460540e-03 6.000167123867159317e-06 -1.970500001364003731e-02 -1.330000203361602750e-03 1.296999880362172336e-03 -1.907099999395413595e-02 -5.800015264789370171e-05 4.879999746689929496e-04 -2.096800000016730073e-02 7.309999625006542365e-04 -9.799999649125685271e-04 -2.022100000305611378e-02 -6.400003340914710119e-04 2.882999930596239196e-03 -2.102399999934705457e-02 -1.244000032881033497e-03 -1.095000115020497086e-03 -2.095999999203953038e-02 -2.534000286998695436e-03 2.398999789250398727e-03 -1.912399998840898924e-02 -2.930001481506114280e-04 4.569999572854444698e-04 -2.057799999883916722e-02 2.442999858852347266e-03 4.660001656002659733e-04 -1.918600001395048479e-02 1.479997673735119167e-03 2.803000007459168288e-02 -3.738300003616789463e-02
