-1.412881003340000007e+03
-1.412881004260000054e+03
-1.412881005810000033e+03
-1.412881008249999923e+03
-1.412881011619999981e+03
