-4.702367811699999720e+02
-4.702367817300000183e+02
-4.702367827699999907e+02
-4.702367843499999935e+02
-4.702367864899999859e+02
-4.702367891399999849e+02
