-1.412880897159999904e+03
-1.412880899320000026e+03
-1.412880903440000111e+03
-1.412880909759999895e+03
-1.412880918390000033e+03
