3.590090000000000003e+00 4.086289999999999978e+00 9.494979999999999976e+00 2.734309999999999796e+00 1.517309999999999937e+00 4.511709999999999887e+00 4.863269999999999982e+00 4.516720000000000290e+00 4.511619999999999742e+00 1.727530000000000010e+00 7.085720000000000240e+00 9.494970000000000354e+00 3.856500000000000039e+00 1.008512999999999948e+01 9.494970000000000354e+00 3.000719999999999832e+00 7.516160000000000174e+00 4.511709999999999887e+00 5.719100000000000072e+00 7.085709999999999731e+00 9.494979999999999976e+00 6.725889999999999702e+00 1.517320000000000002e+00 4.511709999999999887e+00 6.992289999999999672e+00 7.516169999999999796e+00 4.511700000000000266e+00 4.897660000000000124e+00 3.128080000000000194e+00 1.857351999999999848e+01 7.026640000000000441e+00 6.127480000000000260e+00 1.857342999999999833e+01 5.164080000000000226e+00 9.126929999999999765e+00 1.857351999999999848e+01 8.889239999999999142e+00 3.128070000000000128e+00 1.857353000000000165e+01 9.155659999999999243e+00 9.126920000000000144e+00 1.857351999999999848e+01 5.753449999999999953e+00 5.697049999999999947e+00 2.355677999999999983e+01 3.890880000000000116e+00 8.696490000000000720e+00 2.355679999999999907e+01 6.019870000000000054e+00 1.169589000000000034e+01 2.355679999999999907e+01 7.882439999999999891e+00 8.696479999999999322e+00 2.355678999999999945e+01 7.916809999999999903e+00 7.307820000000000427e+00 3.761860999999999677e+01 7.061020000000000074e+00 4.738839999999999719e+00 3.263533999999999935e+01 9.189989999999999881e+00 7.738240000000000229e+00 3.263524999999999920e+01 6.054240000000000066e+00 1.030724999999999980e+01 3.761860999999999677e+01 8.183220000000000383e+00 1.330667000000000044e+01 3.761860000000000070e+01 7.327440000000000175e+00 1.073769000000000062e+01 3.263533000000000328e+01 1.004579999999999984e+01 1.030724000000000018e+01 3.761860999999999677e+01 1.105259999999999998e+01 4.738839999999999719e+00 3.263533000000000328e+01 1.131901000000000046e+01 1.073767999999999923e+01 3.263533999999999935e+01 2.260359999999999925e+00 1.908342000000000027e+01 9.494989999999999597e+00 6.251920000000000144e+00 1.908342000000000027e+01 9.494989999999999597e+00 5.129699999999999704e+00 1.051557000000000031e+01 4.511630000000000251e+00 1.993940000000000046e+00 1.308455999999999975e+01 9.494979999999999976e+00 4.122930000000000206e+00 1.608399000000000001e+01 9.494979999999999976e+00 3.267149999999999999e+00 1.351501000000000019e+01 4.511700000000000266e+00 5.985509999999999664e+00 1.308456999999999937e+01 9.494970000000000354e+00 5.396119999999999806e+00 1.651442000000000121e+01 4.511619999999999742e+00 7.258709999999999773e+00 1.351501999999999981e+01 4.511709999999999887e+00 7.293040000000000411e+00 1.212631999999999977e+01 1.857342999999999833e+01 5.430500000000000327e+00 1.512579000000000029e+01 1.857351999999999848e+01 7.559470000000000134e+00 1.812518000000000029e+01 1.857344000000000150e+01 9.422079999999999345e+00 1.512576999999999927e+01 1.857351999999999848e+01 4.423709999999999809e+00 2.069416999999999973e+01 2.355679999999999907e+01 8.415290000000000603e+00 2.069418999999999897e+01 2.355679999999999907e+01 4.157300000000000217e+00 1.469533000000000023e+01 2.355679999999999907e+01 6.286290000000000155e+00 1.769474999999999909e+01 2.355679999999999907e+01 8.148860000000000881e+00 1.469533000000000023e+01 2.355678999999999945e+01 6.587069999999999759e+00 2.230493999999999843e+01 3.761860000000000070e+01 1.057863000000000042e+01 2.230495000000000161e+01 3.761860999999999677e+01 9.456409999999999982e+00 1.373709999999999987e+01 3.263524999999999920e+01 6.320649999999999658e+00 1.630611000000000033e+01 3.761860999999999677e+01 8.449650000000000105e+00 1.930551000000000172e+01 3.761860000000000070e+01 7.593849999999999767e+00 1.673654000000000153e+01 3.263533000000000328e+01 1.031222999999999956e+01 1.630609000000000108e+01 3.761861999999999995e+01 9.722820000000000462e+00 1.973594999999999899e+01 3.263524999999999920e+01 1.158541999999999916e+01 1.673655000000000115e+01 3.263533000000000328e+01 7.581669999999999909e+00 4.086280000000000356e+00 9.494970000000000354e+00 1.284642999999999979e+01 4.516709999999999781e+00 4.511610000000000120e+00 1.157324999999999982e+01 4.086280000000000356e+00 9.494979999999999976e+00 8.854839999999999378e+00 4.516709999999999781e+00 4.511610000000000120e+00 1.071744999999999948e+01 1.517320000000000002e+00 4.511700000000000266e+00 7.848090000000000011e+00 1.008514000000000088e+01 9.494970000000000354e+00 9.710660000000000736e+00 7.085720000000000240e+00 9.494979999999999976e+00 1.183966000000000030e+01 1.008512999999999948e+01 9.494970000000000354e+00 1.098386999999999958e+01 7.516149999999999665e+00 4.511709999999999887e+00 1.500979000000000063e+01 6.127489999999999881e+00 1.857342999999999833e+01 1.101821999999999946e+01 6.127489999999999881e+00 1.857342999999999833e+01 1.288081999999999994e+01 3.128080000000000194e+00 1.857350999999999885e+01 1.314723000000000042e+01 9.126920000000000144e+00 1.857351999999999848e+01 9.745029999999999859e+00 5.697049999999999947e+00 2.355678999999999945e+01 1.373659999999999926e+01 5.697040000000000326e+00 2.355679999999999907e+01 1.001144000000000034e+01 1.169589999999999996e+01 2.355677999999999983e+01 1.187401000000000018e+01 8.696479999999999322e+00 2.355679999999999907e+01 1.400303000000000075e+01 1.169589999999999996e+01 2.355679999999999907e+01 1.190839000000000070e+01 7.307820000000000427e+00 3.761860999999999677e+01 1.717314999999999969e+01 7.738240000000000229e+00 3.263524999999999920e+01 1.589996000000000009e+01 7.307809999999999917e+00 3.761860999999999677e+01 1.318157000000000068e+01 7.738240000000000229e+00 3.263526000000000238e+01 1.504415999999999976e+01 4.738839999999999719e+00 3.263533999999999935e+01 1.217479999999999940e+01 1.330667000000000044e+01 3.761860999999999677e+01 1.403738000000000063e+01 1.030724999999999980e+01 3.761861999999999995e+01 1.616637000000000057e+01 1.330666000000000082e+01 3.761860000000000070e+01 1.531058999999999948e+01 1.073769000000000062e+01 3.263533999999999935e+01 1.024348999999999954e+01 1.908341000000000065e+01 9.494970000000000354e+00 9.121259999999999479e+00 1.051557000000000031e+01 4.511610000000000120e+00 8.114520000000000621e+00 1.608397000000000077e+01 9.494970000000000354e+00 1.337927000000000000e+01 1.651441000000000159e+01 4.511630000000000251e+00 9.977080000000000837e+00 1.308458000000000077e+01 9.494979999999999976e+00 1.210609000000000002e+01 1.608398000000000039e+01 9.494979999999999976e+00 9.387689999999999202e+00 1.651441000000000159e+01 4.511619999999999742e+00 1.125028999999999968e+01 1.351501999999999981e+01 4.511709999999999887e+00 1.311285999999999952e+01 1.051556000000000068e+01 4.511619999999999742e+00 1.128462999999999994e+01 1.212632999999999939e+01 1.857344000000000150e+01 1.554263000000000083e+01 1.812518000000000029e+01 1.857342999999999833e+01 1.155105000000000004e+01 1.812517000000000067e+01 1.857344000000000150e+01 1.341365000000000052e+01 1.512576999999999927e+01 1.857350999999999885e+01 1.527621000000000073e+01 1.212634000000000079e+01 1.857342999999999833e+01 1.240685000000000038e+01 2.069417999999999935e+01 2.355678999999999945e+01 1.027787000000000006e+01 1.769473999999999947e+01 2.355677999999999983e+01 1.214044999999999952e+01 1.469533000000000023e+01 2.355679999999999907e+01 1.426943999999999946e+01 1.769475999999999871e+01 2.355678999999999945e+01 1.457022000000000084e+01 2.230493999999999843e+01 3.761860999999999677e+01 1.344799000000000078e+01 1.373709999999999987e+01 3.263524999999999920e+01 1.244121999999999950e+01 1.930551000000000172e+01 3.761860999999999677e+01 1.770598999999999990e+01 1.973593999999999937e+01 3.263524999999999920e+01 1.430380000000000074e+01 1.630610000000000070e+01 3.761861999999999995e+01 1.643279000000000067e+01 1.930552000000000135e+01 3.761860999999999677e+01 1.371441000000000088e+01 1.973593999999999937e+01 3.263524000000000314e+01 1.557700999999999958e+01 1.673654000000000153e+01 3.263533000000000328e+01 1.743956000000000017e+01 1.373709000000000024e+01 3.263526000000000238e+01 4.636759999999999771e+00 6.280949999999999811e+00 2.458909999999999929e+00 1.166349999999999998e+00 2.801800000000000068e+00 7.003269999999999662e+00 2.507750000000000146e+00 3.281569999999999876e+00 2.458940000000000126e+00 3.787800000000000056e-01 2.820900000000000074e-01 2.458909999999999929e+00 3.295380000000000198e+00 5.801249999999999574e+00 7.003440000000000332e+00 5.157919999999999838e+00 2.801800000000000068e+00 7.003280000000000172e+00 4.370350000000000179e+00 2.820799999999999974e-01 2.458909999999999929e+00 1.432770000000000099e+00 8.800639999999999574e+00 7.003289999999999793e+00 6.451999999999999957e-01 6.280940000000000190e+00 2.458909999999999929e+00 5.424330000000000318e+00 8.800649999999999196e+00 7.003269999999999662e+00 8.074719999999999231e+00 8.320919999999999206e+00 1.154814999999999969e+01 6.800130000000000230e+00 7.891709999999999781e+00 1.652072000000000074e+01 3.816720000000000113e+00 2.322080000000000144e+00 1.154814000000000007e+01 5.945689999999999920e+00 5.321460000000000079e+00 1.154801999999999929e+01 4.083129999999999704e+00 8.320930000000000604e+00 1.154814000000000007e+01 3.329709999999999948e+00 4.412560000000000038e+00 2.106507999999999825e+01 4.671109999999999651e+00 4.892330000000000290e+00 1.652074999999999960e+01 2.542129999999999779e+00 1.892849999999999921e+00 1.652073000000000036e+01 5.458739999999999704e+00 7.411999999999999922e+00 2.106525999999999854e+01 7.321270000000000167e+00 4.412550000000000416e+00 2.106509000000000142e+01 6.533699999999999619e+00 1.892849999999999921e+00 1.652072000000000074e+01 3.596109999999999918e+00 1.041141000000000005e+01 2.106507999999999825e+01 2.808559999999999945e+00 7.891720000000000290e+00 1.652073999999999998e+01 7.587710000000000399e+00 1.041141000000000005e+01 2.106509000000000142e+01 7.808300000000000018e+00 2.322070000000000078e+00 1.154814999999999969e+01 8.963480000000000558e+00 9.502470000000000638e+00 3.058254000000000161e+01 5.980059999999999931e+00 3.932830000000000048e+00 2.560995000000000132e+01 8.109040000000000248e+00 6.932229999999999670e+00 2.560983999999999838e+01 6.246480000000000032e+00 9.931680000000000064e+00 2.560995000000000132e+01 6.834459999999999980e+00 6.503090000000000259e+00 3.058258000000000010e+01 4.705479999999999663e+00 3.503620000000000179e+00 3.058252999999999844e+01 8.697070000000000078e+00 3.503610000000000113e+00 3.058254000000000161e+01 4.971910000000000274e+00 9.502470000000000638e+00 3.058252999999999844e+01 9.971640000000000725e+00 3.932830000000000048e+00 2.560996000000000095e+01 1.023807000000000045e+01 9.931680000000000064e+00 2.560995000000000132e+01 1.240141999999999989e+01 1.154245000000000054e+01 3.967177000000000220e+01 5.493059999999999832e+00 6.023320000000000007e+00 3.512691000000000230e+01 9.751049999999999329e+00 1.202218000000000053e+01 3.512689999999999912e+01 7.622090000000000032e+00 9.022769999999999513e+00 3.512707000000000335e+01 8.143430000000000391e+00 5.543590000000000018e+00 3.967177000000000220e+01 9.484629999999999228e+00 6.023340000000000138e+00 3.512691999999999837e+01 1.027241000000000071e+01 8.542989999999999640e+00 3.967163999999999646e+01 5.759479999999999933e+00 1.202218000000000053e+01 3.512689999999999912e+01 8.409840000000000870e+00 1.154246000000000016e+01 3.967175999999999902e+01 1.213499999999999979e+01 5.543599999999999639e+00 3.967177000000000220e+01 4.903190000000000381e+00 1.227979000000000021e+01 2.458909999999999929e+00 5.690750000000000419e+00 1.479950000000000010e+01 7.003269999999999662e+00 2.774169999999999803e+00 9.280409999999999826e+00 2.458940000000000126e+00 3.561809999999999921e+00 1.180009000000000086e+01 7.003440000000000332e+00 1.699189999999999978e+00 1.479949000000000048e+01 7.003289999999999793e+00 3.040589999999999904e+00 1.527927000000000035e+01 2.458940000000000126e+00 9.115999999999999659e-01 1.227979000000000021e+01 2.458909999999999929e+00 3.828230000000000022e+00 1.779895000000000138e+01 7.003440000000000332e+00 8.341120000000000090e+00 1.431977999999999973e+01 1.154814999999999969e+01 5.991570000000000285e+00 1.940971000000000046e+01 2.106525999999999854e+01 7.066550000000000331e+00 1.389054999999999929e+01 1.652073000000000036e+01 6.212110000000000021e+00 1.132032000000000060e+01 1.154801999999999929e+01 7.854110000000000369e+00 1.641026000000000096e+01 2.106510000000000105e+01 4.349549999999999805e+00 1.431977000000000011e+01 1.154814999999999969e+01 6.478530000000000122e+00 1.731916999999999973e+01 1.154800999999999966e+01 4.937529999999999752e+00 1.089117000000000068e+01 1.652074999999999960e+01 5.725159999999999805e+00 1.341086999999999918e+01 2.106525999999999854e+01 3.862530000000000019e+00 1.641026000000000096e+01 2.106510000000000105e+01 5.203940000000000232e+00 1.689002999999999943e+01 1.652074999999999960e+01 3.074969999999999981e+00 1.389056000000000068e+01 1.652073000000000036e+01 9.229900000000000659e+00 1.550131999999999977e+01 3.058255000000000123e+01 8.375469999999999970e+00 1.293107999999999969e+01 2.560981999999999914e+01 5.238319999999999865e+00 1.550132999999999939e+01 3.058254000000000161e+01 6.512900000000000134e+00 1.593052999999999919e+01 2.560996000000000095e+01 8.641880000000000450e+00 1.892993999999999843e+01 2.560981999999999914e+01 7.100880000000000081e+00 1.250192999999999977e+01 3.058258000000000010e+01 7.367300000000000182e+00 1.850078999999999851e+01 3.058256000000000085e+01 1.050447999999999915e+01 1.593052999999999919e+01 2.560995000000000132e+01 1.266783999999999999e+01 1.754129999999999967e+01 3.967177000000000220e+01 8.676270000000000593e+00 1.754129999999999967e+01 3.967177000000000220e+01 1.080523999999999951e+01 2.054069000000000145e+01 3.967163999999999646e+01 7.888519999999999754e+00 1.502163000000000004e+01 3.512707999999999942e+01 1.053883000000000081e+01 1.454184000000000054e+01 3.967163999999999646e+01 6.025890000000000413e+00 1.802102000000000004e+01 3.512691000000000230e+01 1.001746999999999943e+01 1.802102999999999966e+01 3.512691000000000230e+01 8.154939999999999856e+00 2.102047999999999917e+01 3.512707000000000335e+01 8.628339999999999677e+00 6.280940000000000190e+00 2.458909999999999929e+00 6.499329999999999607e+00 3.281559999999999810e+00 2.458940000000000126e+00 7.286950000000000038e+00 5.801239999999999952e+00 7.003449999999999953e+00 9.149490000000000123e+00 2.801810000000000134e+00 7.003280000000000172e+00 1.049089999999999989e+01 3.281559999999999810e+00 2.458950000000000191e+00 8.361919999999999575e+00 2.820900000000000074e-01 2.458909999999999929e+00 1.127853999999999957e+01 5.801249999999999574e+00 7.003449999999999953e+00 9.415910000000000224e+00 8.800649999999999196e+00 7.003269999999999662e+00 1.392883999999999922e+01 5.321460000000000079e+00 1.154801999999999929e+01 1.079171000000000014e+01 7.891700000000000159e+00 1.652072000000000074e+01 9.937269999999999825e+00 5.321469999999999700e+00 1.154801999999999929e+01 1.179986000000000068e+01 2.322070000000000078e+00 1.154814000000000007e+01 1.157926999999999929e+01 1.041141000000000005e+01 2.106510000000000105e+01 1.206626999999999938e+01 8.320919999999999206e+00 1.154814999999999969e+01 8.662670000000000314e+00 4.892319999999999780e+00 1.652075999999999922e+01 9.450309999999999988e+00 7.411999999999999922e+00 2.106525999999999854e+01 1.131284999999999918e+01 4.412569999999999659e+00 2.106509000000000142e+01 1.265426000000000073e+01 4.892319999999999780e+00 1.652074999999999960e+01 1.052527000000000079e+01 1.892859999999999987e+00 1.652073999999999998e+01 1.344189000000000078e+01 7.411999999999999922e+00 2.106524999999999892e+01 1.295504999999999995e+01 9.502480000000000260e+00 3.058254000000000161e+01 1.210061999999999927e+01 6.932220000000000049e+00 2.560982999999999876e+01 1.396321999999999974e+01 3.932830000000000048e+00 2.560996000000000095e+01 1.268863999999999947e+01 3.503629999999999800e+00 3.058254000000000161e+01 1.422963999999999984e+01 9.931689999999999685e+00 2.560996000000000095e+01 1.082605000000000040e+01 6.503079999999999750e+00 3.058257000000000048e+01 1.481761999999999979e+01 6.503079999999999750e+00 3.058257000000000048e+01 1.609219999999999828e+01 6.932229999999999670e+00 2.560982999999999876e+01 1.825555999999999912e+01 8.542999999999999261e+00 3.967163999999999646e+01 1.161367000000000083e+01 9.022779999999999134e+00 3.512707000000000335e+01 1.639300000000000068e+01 1.154243999999999915e+01 3.967175999999999902e+01 1.347621999999999964e+01 6.023320000000000007e+00 3.512691000000000230e+01 1.426398999999999972e+01 8.542980000000000018e+00 3.967163999999999646e+01 1.560524999999999984e+01 9.022769999999999513e+00 3.512707999999999942e+01 1.612658000000000058e+01 5.543599999999999639e+00 3.967177999999999827e+01 1.374262000000000050e+01 1.202218000000000053e+01 3.512691999999999837e+01 6.765740000000000087e+00 9.280409999999999826e+00 2.458940000000000126e+00 7.553379999999999761e+00 1.180009000000000086e+01 7.003449999999999953e+00 1.075732999999999961e+01 9.280419999999999447e+00 2.458940000000000126e+00 1.154495000000000005e+01 1.180010000000000048e+01 7.003440000000000332e+00 7.032169999999999810e+00 1.527926000000000073e+01 2.458930000000000060e+00 7.819799999999999862e+00 1.779895000000000138e+01 7.003440000000000332e+00 9.682330000000000325e+00 1.479950000000000010e+01 7.003269999999999662e+00 1.102374000000000009e+01 1.527926000000000073e+01 2.458940000000000126e+00 8.894759999999999778e+00 1.227979000000000021e+01 2.458919999999999995e+00 1.181137000000000015e+01 1.779895000000000138e+01 7.003440000000000332e+00 1.020368000000000031e+01 1.132030999999999921e+01 1.154800999999999966e+01 1.397472999999999921e+01 1.940970000000000084e+01 2.106525999999999854e+01 1.047011000000000003e+01 1.731916000000000011e+01 1.154800000000000004e+01 1.233270000000000088e+01 1.431977999999999973e+01 1.154814000000000007e+01 8.929109999999999658e+00 1.089117000000000068e+01 1.652075999999999922e+01 9.716730000000000089e+00 1.341084999999999994e+01 2.106525999999999854e+01 1.292068000000000083e+01 1.089118000000000031e+01 1.652074999999999960e+01 1.370831000000000088e+01 1.341085999999999956e+01 2.106525999999999854e+01 9.195520000000000138e+00 1.689001999999999981e+01 1.652075999999999922e+01 9.983140000000000569e+00 1.940971000000000046e+01 2.106527000000000172e+01 1.184567999999999977e+01 1.641026000000000096e+01 2.106509000000000142e+01 1.318708999999999953e+01 1.689002999999999943e+01 1.652075999999999922e+01 1.105810999999999922e+01 1.389056000000000068e+01 1.652073000000000036e+01 1.419525999999999932e+01 1.132030999999999921e+01 1.154801999999999929e+01 1.446166999999999980e+01 1.731916000000000011e+01 1.154800000000000004e+01 1.236702999999999975e+01 1.293108999999999931e+01 2.560981999999999914e+01 1.322147999999999968e+01 1.550131999999999977e+01 3.058254000000000161e+01 1.263344999999999985e+01 1.892992999999999881e+01 2.560981999999999914e+01 1.449605999999999995e+01 1.593055000000000021e+01 2.560996000000000095e+01 1.109247000000000050e+01 1.250193999999999939e+01 3.058256000000000085e+01 1.508403000000000027e+01 1.250195000000000078e+01 3.058257000000000048e+01 1.135886999999999958e+01 1.850080000000000169e+01 3.058256000000000085e+01 1.535045999999999999e+01 1.850080000000000169e+01 3.058257000000000048e+01 1.635860999999999876e+01 1.293107999999999969e+01 2.560981999999999914e+01 1.662501999999999924e+01 1.892992999999999881e+01 2.560983999999999838e+01 1.188008999999999915e+01 1.502162000000000042e+01 3.512709000000000259e+01 1.453039000000000058e+01 1.454182999999999915e+01 3.967163999999999646e+01 1.587166999999999994e+01 1.502161000000000080e+01 3.512707999999999942e+01 1.214649999999999963e+01 2.102046999999999954e+01 3.512707999999999942e+01 1.665941000000000116e+01 1.754129999999999967e+01 3.967177000000000220e+01 1.400904000000000060e+01 1.802102999999999966e+01 3.512691999999999837e+01 1.479682000000000031e+01 2.054070000000000107e+01 3.967164999999999964e+01 1.613807999999999865e+01 2.102046999999999954e+01 3.512709000000000259e+01 1.852197999999999922e+01 1.454184000000000054e+01 3.967163999999999646e+01 1.878838000000000008e+01 2.054070000000000107e+01 3.967164999999999964e+01