-1.714370663659999991e+03
-1.714267421000000013e+03
-1.714224272989999918e+03
-1.714241274510000039e+03
-1.714318439200000057e+03
-1.714456035409999913e+03
-1.714654369619999898e+03
-1.714913939269999901e+03
-1.715235315090000086e+03
-1.715619294170000103e+03
