-2.081000000000000072e-01 -4.238790000000000058e-01 9.043369999999999465e-01 2.091270000000000073e-01 4.246829999999999772e-01 -9.057180000000000231e-01 2.086780000000000024e-01 4.240929999999999978e-01 -9.059139999999999970e-01 -2.083129999999999982e-01 -4.240519999999999845e-01 9.040540000000000243e-01 -2.081330000000000124e-01 -4.239290000000000003e-01 9.042999999999999927e-01 2.091220000000000023e-01 4.247799999999999909e-01 -9.056239999999999846e-01 -2.085559999999999914e-01 -4.243680000000000230e-01 9.043449999999999545e-01 2.084070000000000089e-01 4.241570000000000062e-01 -9.053579999999999961e-01 2.084310000000000052e-01 4.241659999999999875e-01 -9.052569999999999784e-01 2.091510000000000036e-01 4.247799999999999909e-01 -9.056199999999999806e-01 2.087239999999999929e-01 4.240840000000000165e-01 -9.058979999999999810e-01 2.091359999999999886e-01 4.248569999999999847e-01 -9.056340000000000501e-01 2.084789999999999976e-01 4.241260000000000030e-01 -9.053060000000000551e-01 2.083909999999999929e-01 4.242400000000000060e-01 -9.051609999999999934e-01 -2.081749999999999989e-01 -4.237090000000000023e-01 9.041660000000000252e-01 -2.083399999999999974e-01 -4.240670000000000273e-01 9.042930000000000135e-01 -2.081590000000000107e-01 -4.237929999999999753e-01 9.043400000000000327e-01 -2.086099999999999899e-01 -4.242259999999999920e-01 9.041740000000000332e-01 -2.081429999999999947e-01 -4.236869999999999803e-01 9.043010000000000215e-01 2.091810000000000058e-01 4.248100000000000209e-01 -9.058599999999999985e-01 2.086890000000000134e-01 4.241460000000000230e-01 -9.061190000000000078e-01 -2.083399999999999974e-01 -4.240220000000000100e-01 9.043419999999999792e-01 -2.081620000000000137e-01 -4.238179999999999725e-01 9.045509999999999939e-01 2.091300000000000103e-01 4.248390000000000222e-01 -9.059019999999999850e-01 -2.085829999999999906e-01 -4.243100000000000205e-01 9.045779999999999932e-01 2.084169999999999912e-01 4.242190000000000127e-01 -9.055950000000000388e-01 2.084229999999999972e-01 4.241010000000000058e-01 -9.053999999999999826e-01 -2.083170000000000022e-01 -4.241829999999999767e-01 9.043489999999999585e-01 -2.085619999999999974e-01 -4.243870000000000142e-01 9.044240000000000057e-01 2.086500000000000021e-01 4.240349999999999953e-01 -9.058509999999999618e-01 -2.082900000000000029e-01 -4.241679999999999895e-01 9.042090000000000405e-01 -2.081330000000000124e-01 -4.238890000000000158e-01 9.044029999999999569e-01 2.091570000000000096e-01 4.247070000000000012e-01 -9.057979999999999920e-01 -2.085950000000000026e-01 -4.243569999999999842e-01 9.043729999999999825e-01 2.086079999999999879e-01 4.241019999999999790e-01 -9.059709999999999708e-01 2.084280000000000022e-01 4.240539999999999865e-01 -9.052069999999999839e-01 2.087160000000000126e-01 4.242440000000000100e-01 -9.058939999999999770e-01 2.091760000000000008e-01 4.248219999999999774e-01 -9.056650000000000533e-01 2.086820000000000064e-01 4.240630000000000233e-01 -9.057260000000000311e-01 2.084149999999999892e-01 4.241840000000000055e-01 -9.053259999999999641e-01 -2.083480000000000054e-01 -4.240249999999999853e-01 9.042019999999999502e-01 -2.086079999999999879e-01 -4.242440000000000100e-01 9.043179999999999552e-01 -2.083389999999999964e-01 -4.240300000000000180e-01 9.043069999999999720e-01 -2.081679999999999919e-01 -4.237159999999999815e-01 9.041630000000000500e-01 -2.086379999999999901e-01 -4.242139999999999800e-01 9.042519999999999447e-01 -2.083990000000000009e-01 -4.239419999999999855e-01 9.042160000000000197e-01 -2.085919999999999996e-01 -4.242319999999999980e-01 9.043609999999999705e-01 2.086469999999999991e-01 4.241750000000000242e-01 -9.060479999999999645e-01 -2.084090000000000109e-01 -4.240470000000000073e-01 9.043600000000000527e-01 -2.081030000000000102e-01 -4.237549999999999928e-01 9.042630000000000390e-01 2.091240000000000043e-01 4.248730000000000007e-01 -9.059040000000000425e-01 -2.085680000000000034e-01 -4.243859999999999855e-01 9.045720000000000427e-01 2.086909999999999876e-01 4.241750000000000242e-01 -9.061379999999999990e-01 2.084600000000000064e-01 4.241880000000000095e-01 -9.054609999999999603e-01 -2.083710000000000007e-01 -4.235180000000000056e-01 9.042620000000000102e-01 2.085229999999999861e-01 4.238810000000000078e-01 -9.057340000000000391e-01 -2.086770000000000014e-01 -4.238029999999999853e-01 9.044090000000000185e-01 2.092590000000000006e-01 4.245729999999999782e-01 -9.062459999999999960e-01 2.085919999999999996e-01 4.243959999999999955e-01 -9.056950000000000278e-01 -2.084010000000000029e-01 -4.235369999999999968e-01 9.042550000000000310e-01 -2.080450000000000077e-01 -4.243930000000000202e-01 9.042890000000000095e-01 -2.087080000000000046e-01 -4.237440000000000095e-01 9.043520000000000447e-01 2.085829999999999906e-01 4.242500000000000160e-01 -9.054079999999999906e-01 2.085229999999999861e-01 4.239539999999999975e-01 -9.056389999999999718e-01 2.092320000000000013e-01 4.245650000000000257e-01 -9.061050000000000493e-01 2.086000000000000076e-01 4.243520000000000070e-01 -9.055140000000000411e-01 2.085819999999999896e-01 4.243350000000000177e-01 -9.054400000000000226e-01 -2.084610000000000074e-01 -4.234539999999999971e-01 9.041000000000000147e-01 -2.086669999999999914e-01 -4.237239999999999895e-01 9.042919999999999847e-01 -2.084560000000000024e-01 -4.233910000000000173e-01 9.041609999999999925e-01 -2.080970000000000042e-01 -4.242779999999999885e-01 9.042540000000000022e-01 -2.087060000000000026e-01 -4.236639999999999850e-01 9.044010000000000105e-01 -2.084910000000000097e-01 -4.234080000000000066e-01 9.043999999999999817e-01 2.085609999999999964e-01 4.239319999999999755e-01 -9.058779999999999610e-01 -2.087209999999999899e-01 -4.237239999999999895e-01 9.044809999999999794e-01 2.092100000000000071e-01 4.246219999999999994e-01 -9.062609999999999832e-01 2.085720000000000074e-01 4.243549999999999822e-01 -9.057530000000000303e-01 -2.084479999999999944e-01 -4.235320000000000196e-01 9.045919999999999517e-01 -2.081210000000000004e-01 -4.243560000000000110e-01 9.044349999999999890e-01 -2.087519999999999931e-01 -4.236989999999999923e-01 9.045100000000000362e-01 2.085450000000000081e-01 4.243620000000000170e-01 -9.056469999999999798e-01 -2.079749999999999932e-01 -4.244649999999999812e-01 9.042909999999999560e-01 2.092650000000000066e-01 4.245479999999999809e-01 -9.061449999999999783e-01 -2.083760000000000057e-01 -4.235340000000000216e-01 9.042559999999999487e-01 2.085670000000000024e-01 4.238700000000000245e-01 -9.058490000000000153e-01 -2.080299999999999927e-01 -4.244390000000000107e-01 9.042759999999999687e-01 -2.086560000000000081e-01 -4.238399999999999945e-01 9.044489999999999474e-01 2.093019999999999881e-01 4.246079999999999854e-01 -9.062189999999999968e-01 2.086149999999999949e-01 4.243100000000000205e-01 -9.056380000000000541e-01 2.085480000000000111e-01 4.238669999999999938e-01 -9.057520000000000016e-01 2.092690000000000106e-01 4.246440000000000214e-01 -9.061240000000000405e-01 2.085559999999999914e-01 4.239450000000000163e-01 -9.057330000000000103e-01 2.092960000000000098e-01 4.245950000000000002e-01 -9.061080000000000245e-01 2.085980000000000056e-01 4.243939999999999935e-01 -9.055560000000000276e-01 2.085460000000000091e-01 4.240709999999999757e-01 -9.057589999999999808e-01 -2.080230000000000135e-01 -4.243480000000000030e-01 9.041959999999999997e-01 -2.084330000000000072e-01 -4.233520000000000061e-01 9.041489999999999805e-01 -2.080970000000000042e-01 -4.243089999999999917e-01 9.043320000000000247e-01 -2.087080000000000046e-01 -4.236469999999999958e-01 9.043820000000000192e-01 -2.080369999999999997e-01 -4.243990000000000262e-01 9.043729999999999825e-01 2.092859999999999998e-01 4.246869999999999812e-01 -9.063600000000000545e-01 -2.084290000000000032e-01 -4.234809999999999963e-01 9.044159999999999977e-01 2.085309999999999941e-01 4.239450000000000163e-01 -9.058840000000000225e-01 -2.080909999999999982e-01 -4.244280000000000275e-01 9.045199999999999907e-01 -2.087739999999999874e-01 -4.236619999999999830e-01 9.044830000000000370e-01 2.093049999999999911e-01 4.246460000000000234e-01 -9.064010000000000122e-01 2.085960000000000036e-01 4.243839999999999835e-01 -9.058239999999999625e-01 2.085200000000000109e-01 4.240090000000000248e-01 -9.058910000000000018e-01 -3.302459999999999840e-01 -7.510710000000000441e-01 2.984367999999999910e+00 1.700000000000000122e-04 -1.800000000000000113e-04 -7.299999999999999903e-05 -3.305009999999999892e-01 -7.506720000000000059e-01 2.983947999999999823e+00 -3.306569999999999787e-01 -7.510510000000000241e-01 2.983645000000000103e+00 -3.099999999999999999e-04 2.439999999999999949e-04 5.720000000000000258e-04 8.200000000000000095e-05 -3.800000000000000209e-05 6.399999999999999710e-05 -3.301529999999999743e-01 -7.510000000000000009e-01 2.983591000000000104e+00 2.329999999999999986e-04 -3.890000000000000228e-04 -3.800000000000000209e-05 -3.304819999999999980e-01 -7.506909999999999972e-01 2.984280000000000044e+00 6.000000000000000152e-05 -2.010000000000000068e-04 6.999999999999999387e-05 3.300069999999999948e-01 7.504669999999999952e-01 -2.982686999999999866e+00 -3.299929999999999808e-01 -7.513260000000000494e-01 2.983889000000000014e+00 3.303010000000000113e-01 7.505540000000000544e-01 -2.982742000000000004e+00 3.302059999999999995e-01 7.508070000000000022e-01 -2.982988000000000195e+00 3.304889999999999772e-01 7.507019999999999804e-01 -2.982828000000000035e+00 1.110000000000000011e-04 -1.129999999999999955e-04 -9.849999999999999815e-04 -3.302470000000000128e-01 -7.508200000000000429e-01 2.984745999999999899e+00 -3.304650000000000087e-01 -7.508190000000000142e-01 2.984637999999999902e+00 -1.800000000000000113e-04 -1.399999999999999979e-05 -2.069999999999999900e-04 1.640000000000000019e-04 -1.620000000000000075e-04 -7.420000000000000380e-04 -3.301870000000000083e-01 -7.508080000000000309e-01 2.984297000000000200e+00 1.779999999999999898e-04 -1.110000000000000011e-04 -9.979999999999999722e-04 -3.303860000000000130e-01 -7.510989999999999611e-01 2.984201000000000104e+00 1.649999999999999991e-04 -8.200000000000000095e-05 -7.910000000000000364e-04 3.302539999999999920e-01 7.504669999999999952e-01 -2.982724999999999849e+00 -3.300400000000000000e-01 -7.508270000000000222e-01 2.984513000000000194e+00 3.303309999999999858e-01 7.505589999999999762e-01 -2.983382000000000200e+00 3.300339999999999940e-01 7.506660000000000554e-01 -2.983732999999999969e+00 3.302169999999999828e-01 7.502529999999999477e-01 -2.983118999999999854e+00 -3.302189999999999848e-01 -7.500459999999999905e-01 2.984958999999999918e+00 -3.304250000000000242e-01 -7.507819999999999494e-01 2.984863999999999962e+00 -3.299739999999999895e-01 -7.507960000000000189e-01 2.984665000000000123e+00 -3.301560000000000050e-01 -7.504340000000000455e-01 2.984499000000000013e+00 3.302570000000000228e-01 7.502590000000000092e-01 -2.983311000000000046e+00 3.302450000000000108e-01 7.503589999999999982e-01 -2.983133000000000035e+00 3.299210000000000198e-01 7.498489999999999878e-01 -2.983782000000000156e+00 1.320000000000000101e-04 -2.429999999999999977e-04 2.229999999999999994e-04 3.600000000000000091e-05 -3.440000000000000132e-04 8.000000000000000654e-05 -3.409999999999999945e-04 4.399999999999999886e-05 7.240000000000000342e-04 3.304810000000000247e-01 7.508629999999999471e-01 -2.983516999999999975e+00 5.599999999999999916e-05 -2.820000000000000241e-04 3.620000000000000171e-04 3.301239999999999730e-01 7.504690000000000527e-01 -2.984027000000000207e+00 1.669999999999999935e-04 -2.759999999999999867e-04 -2.700000000000000035e-04 3.304880000000000040e-01 7.499430000000000263e-01 -2.983426999999999829e+00 3.302880000000000260e-01 7.506789999999999852e-01 -2.983506000000000213e+00 -3.304909999999999792e-01 -7.508219999999999894e-01 2.984221999999999930e+00 9.600000000000000243e-05 -4.609999999999999840e-04 1.569999999999999944e-04 -3.305540000000000145e-01 -7.501219999999999555e-01 2.984894000000000158e+00 -1.820000000000000057e-04 -5.199999999999999680e-05 7.269999999999999987e-04 1.939999999999999993e-04 -4.859999999999999954e-04 7.100000000000000462e-05 -3.307760000000000145e-01 -7.500769999999999937e-01 2.984135999999999900e+00 -3.302539999999999920e-01 -7.505579999999999474e-01 2.984310999999999936e+00 -2.329999999999999986e-04 8.000000000000000654e-05 6.809999999999999647e-04 3.302109999999999768e-01 7.503739999999999855e-01 -2.982876999999999779e+00 -2.069999999999999900e-04 4.400000000000000157e-04 -2.000000000000000096e-04 -3.301629999999999843e-01 -7.511929999999999996e-01 2.984474000000000071e+00 3.298940000000000206e-01 7.506420000000000314e-01 -2.983058000000000209e+00 1.499999999999999869e-04 -1.279999999999999942e-04 -7.339999999999999520e-04 3.302749999999999853e-01 7.505089999999999817e-01 -2.982981999999999800e+00 3.300730000000000053e-01 7.506140000000000034e-01 -2.983130000000000059e+00 -3.302410000000000068e-01 -7.504910000000000192e-01 2.984582000000000068e+00 -2.539999999999999940e-04 3.629999999999999872e-04 -2.380000000000000117e-04 2.329999999999999986e-04 -3.020000000000000223e-04 -9.449999999999999850e-04 -3.304790000000000227e-01 -7.506180000000000074e-01 2.984710999999999892e+00 -3.303380000000000205e-01 -7.509559999999999569e-01 2.984604000000000035e+00 -3.302559999999999940e-01 -7.510930000000000106e-01 2.984501999999999988e+00 3.300120000000000275e-01 7.504239999999999799e-01 -2.983617000000000186e+00 -3.304300000000000015e-01 -7.507650000000000157e-01 2.984675000000000189e+00 3.302640000000000020e-01 7.502609999999999557e-01 -2.983352000000000004e+00 3.300810000000000133e-01 7.505969999999999587e-01 -2.983718000000000092e+00 -3.304270000000000262e-01 -7.503229999999999622e-01 2.984812999999999938e+00 -3.305069999999999952e-01 -7.504459999999999464e-01 2.985179000000000027e+00 3.302289999999999948e-01 7.501870000000000482e-01 -2.983385000000000176e+00 3.302030000000000243e-01 7.506429999999999492e-01 -2.983605999999999980e+00 3.303499999999999770e-01 7.505199999999999649e-01 -2.983362000000000069e+00 3.300509999999999833e-01 7.512349999999999861e-01 -2.983842000000000105e+00 -2.829999999999999942e-04 2.869999999999999830e-04 4.409999999999999858e-04 3.299039999999999750e-01 7.502320000000000100e-01 -2.983823000000000114e+00 2.229999999999999994e-04 -2.069999999999999900e-04 -2.730000000000000222e-04 2.390000000000000089e-04 -1.179999999999999951e-04 -1.310000000000000129e-04 -1.669999999999999935e-04 2.649999999999999903e-04 7.500000000000000156e-04 -3.304289999999999727e-01 -7.511640000000000539e-01 2.984661000000000008e+00 -3.300799999999999845e-01 -7.507679999999999909e-01 2.984132999999999925e+00 1.450000000000000009e-04 -2.159999999999999919e-04 6.710000000000000469e-04 -9.399999999999999448e-05 3.660000000000000059e-04 6.200000000000000270e-05 -3.302979999999999805e-01 -7.511769999999999836e-01 2.983922999999999881e+00 -3.300080000000000235e-01 -7.508310000000000262e-01 2.984086000000000016e+00 7.999999999999999638e-06 -1.779999999999999898e-04 8.080000000000000160e-04 -2.410000000000000033e-04 1.769999999999999926e-04 1.350000000000000017e-04 3.301850000000000063e-01 7.502379999999999605e-01 -2.983007000000000186e+00 -3.303639999999999910e-01 -7.512579999999999814e-01 2.984446999999999850e+00 3.302599999999999980e-01 7.505049999999999777e-01 -2.983204000000000189e+00 3.297599999999999976e-01 7.508129999999999526e-01 -2.982781999999999822e+00 -2.469999999999999865e-04 3.620000000000000171e-04 -8.630000000000000518e-04 3.297039999999999971e-01 7.508169999999999566e-01 -2.982683999999999891e+00 -3.303329999999999878e-01 -7.506969999999999477e-01 2.984347000000000083e+00 2.130000000000000003e-04 -4.470000000000000232e-04 -2.469999999999999865e-04 -5.500000000000000196e-05 3.559999999999999797e-04 -7.860000000000000233e-04 -3.302669999999999773e-01 -7.510139999999999594e-01 2.984366000000000074e+00 -3.304520000000000235e-01 -7.506420000000000314e-01 2.984612999999999960e+00 6.600000000000000506e-05 -5.270000000000000162e-04 -4.100000000000000047e-05 -3.303599999999999870e-01 -7.507139999999999924e-01 2.984752999999999989e+00 3.304810000000000247e-01 7.503720000000000390e-01 -2.983578000000000063e+00 3.301640000000000130e-01 7.507570000000000077e-01 -2.983448999999999796e+00 -3.303070000000000173e-01 -7.507380000000000164e-01 2.984916999999999820e+00 3.301009999999999778e-01 7.506230000000000402e-01 -2.983025000000000038e+00 -3.303380000000000205e-01 -7.502159999999999940e-01 2.984869999999999912e+00 -3.301049999999999818e-01 -7.503739999999999855e-01 2.984627999999999837e+00 3.303670000000000218e-01 7.502769999999999717e-01 -2.983414999999999928e+00 3.303840000000000110e-01 7.498639999999999750e-01 -2.983820000000000139e+00 1.320000000000000101e-04 -5.389999999999999826e-04 7.579999999999999932e-04 3.299610000000000043e-01 7.501719999999999500e-01 -2.983632000000000062e+00 -2.809999999999999998e-04 1.459999999999999981e-04 3.910000000000000172e-04 3.302419999999999800e-01 7.500280000000000280e-01 -2.983978000000000019e+00 -4.699999999999999724e-05 -4.079999999999999968e-04 7.810000000000000102e-04 3.297660000000000036e-01 7.509230000000000071e-01 -2.983603000000000005e+00 -1.489999999999999897e-04 1.200000000000000030e-04 1.210000000000000002e-04 -3.306629999999999847e-01 -7.503009999999999957e-01 2.984872000000000192e+00 1.029999999999999964e-04 -5.320000000000000293e-04 7.010000000000000172e-04 -3.300950000000000273e-01 -7.504600000000000160e-01 2.984480000000000022e+00 5.199999999999999680e-05 -4.279999999999999950e-04 7.010000000000000172e-04 -3.304719999999999880e-01 -7.498500000000000165e-01 2.984070000000000000e+00 1.759999999999999954e-04 -3.660000000000000059e-04 5.379999999999999583e-04 -1.610000000000000103e-04 1.079999999999999960e-04 8.000000000000000654e-05 -3.298389999999999933e-01 -7.500769999999999937e-01 2.983967999999999954e+00 -3.301850000000000063e-01 -7.507420000000000204e-01 2.984649000000000107e+00 7.999999999999999638e-06 -2.640000000000000202e-04 7.179999999999999967e-04 3.302300000000000235e-01 7.505030000000000312e-01 -2.983309999999999906e+00 3.199999999999999855e-05 1.190000000000000058e-04 -2.120000000000000031e-04 3.303659999999999930e-01 7.505370000000000097e-01 -2.983385999999999871e+00 3.299019999999999730e-01 7.510019999999999474e-01 -2.982972000000000179e+00 -3.303530000000000078e-01 -7.504979999999999984e-01 2.984255000000000102e+00 2.130000000000000003e-04 -3.009999999999999980e-04 -1.029999999999999964e-04 -3.304230000000000222e-01 -7.505749999999999922e-01 2.984223000000000070e+00 1.310000000000000129e-04 -2.079999999999999872e-04 -1.969999999999999909e-04 -3.304309999999999747e-01 -7.504290000000000127e-01 2.984715000000000007e+00 2.259999999999999910e-04 -5.000000000000000240e-05 -2.700000000000000035e-04 -1.100000000000000039e-04 3.480000000000000020e-04 -7.560000000000000530e-04 -3.302030000000000243e-01 -7.505560000000000009e-01 2.984516000000000169e+00 -3.304830000000000267e-01 -7.511130000000000306e-01 2.984685999999999950e+00 3.303099999999999925e-01 7.503779999999999895e-01 -2.983048000000000144e+00 3.300669999999999993e-01 7.502400000000000180e-01 -2.983216999999999786e+00 3.304420000000000135e-01 7.502379999999999605e-01 -2.983670000000000044e+00 -3.301529999999999743e-01 -7.507700000000000484e-01 2.984852000000000061e+00 3.305379999999999985e-01 7.503119999999999790e-01 -2.983912000000000120e+00 3.300379999999999980e-01 7.505600000000000049e-01 -2.983397000000000077e+00 -3.303420000000000245e-01 -7.503589999999999982e-01 2.984582000000000068e+00 -3.300139999999999740e-01 -7.502069999999999572e-01 2.984392000000000156e+00 -3.302459999999999840e-01 -7.502199999999999980e-01 2.984925000000000050e+00 -3.301419999999999910e-01 -7.506540000000000434e-01 2.984767000000000170e+00 3.303249999999999797e-01 7.502220000000000555e-01 -2.983546000000000031e+00 3.301259999999999750e-01 7.502029999999999532e-01 -2.983411999999999953e+00 2.169999999999999891e-04 -2.840000000000000185e-04 4.079999999999999968e-04 3.302820000000000200e-01 7.502649999999999597e-01 -2.983823000000000114e+00 1.000000000000000082e-05 -2.730000000000000222e-04 4.929999999999999487e-04 2.390000000000000089e-04 -2.460000000000000164e-04 7.360000000000000006e-04 3.298429999999999973e-01 7.510930000000000106e-01 -2.983454000000000050e+00 -1.150000000000000035e-04 4.200000000000000174e-04 -2.220000000000000022e-04 3.303470000000000018e-01 7.511229999999999851e-01 -2.984055999999999820e+00 -1.110000000000000011e-04 -1.190000000000000058e-04 9.089999999999999773e-04 3.303159999999999985e-01 7.498869999999999703e-01 -2.983289000000000080e+00 3.299019999999999730e-01 7.509580000000000144e-01 -2.983699000000000101e+00