-3.952999996736765616e-03 -1.200003000182254761e-04 -1.052999978060146103e-03 -3.807998305166037344e-03 -2.129200027270615470e-02 1.531100004228768720e-02 5.910000030561856754e-04 -1.149999563233695894e-04 -1.022000003147363785e-03 -3.803999864104692062e-03 -1.580000284729832401e-03 2.971000022575755184e-03 -3.226000107790425592e-02 1.617499758648225164e-02 2.634400016191371097e-02 -5.133299972867919059e-02 -4.075003889000500604e-03 -6.679999712578836915e-03 1.827199926892780421e-02 1.090400139885399321e-02 1.695699988824945006e-02 -2.050000038124234845e-03 6.339998467359709428e-04 1.780000010682416004e-03 -1.317000103075304396e-03 1.374999900560760092e-03 1.660000058961944990e-04 5.899999328991530019e-05 1.520000053282110524e-04 8.669999995224992977e-04 -1.296999923903928691e-03 -1.126000099732596795e-03 -1.641999991716012585e-03 -8.280000083496439614e-04 1.719999382211982871e-04 8.440000043986336077e-04 -3.500003152158731210e-05 4.569999979033208281e-04 5.509999997367083903e-04 1.860000186782015039e-04 -2.149999854952633902e-04 4.379999991880653546e-04 -5.209999946975594175e-04 -8.000038553319970130e-06 8.510000028838357253e-04 6.920000576441775325e-04 -7.099999469496627840e-04 7.149999968894623801e-04 1.064780001190232805e-01 -2.049919283084890688e-04 1.875399941246159649e-02 -5.821000755145203098e-03 2.648999459359146179e-03 -1.005099999705149488e-01 3.155000079348900966e-03 4.160002586659152673e-04 2.007499998216932119e-02 -6.142999654991800930e-03 -3.363000448190109695e-03 1.642500003726769103e-02 -2.139000274947698566e-03 5.005999856984773635e-03 1.877900000680659751e-02 -3.941999689292189149e-03 -2.559000276931308257e-03 2.122700002431539626e-02 9.800000299344201454e-04 1.042000093795524256e-03 1.969999999354971054e-02 -8.059999810097177473e-04 1.233999959367155759e-03 2.034800000321639046e-02 5.770000946955894080e-04 1.690000630877901611e-04 1.947099999664623354e-02 1.893000085452217068e-03 2.810001624773661422e-04 1.933099998927022972e-02 5.370001578959566601e-04 -5.959999389705050244e-04 2.043899999763116801e-02 9.140000813068907895e-04 3.380000884653100316e-04 1.936099999461723259e-02 -3.247999633068920748e-03 -3.257000223822606195e-03 2.184900002118183096e-02 3.350002196518523279e-04 -1.436999954582438271e-03 2.010399999958623410e-02 -1.150999811145558696e-03 -1.043000067149799266e-03 1.992300000739518143e-02 -1.800999958122829082e-03 7.759998819884418976e-04 1.821900000916613221e-02 -2.112300001553898965e-02 -3.890016056737833554e-04 -8.144999883015528741e-03 1.417500059948270143e-02 -7.631998923910606955e-03 4.034999929379474472e-03 1.778999859435229005e-03 4.010001145976567114e-04 -1.997100001022037233e-02 -8.802999518049040018e-03 -6.927000673362604388e-03 -7.597999944489494673e-03 5.847999963668542960e-03 -1.034999578453931228e-03 -2.076300003124627661e-02 2.066998759392718859e-03 1.687200016273848746e-02 6.417999971737415113e-03 -4.425000029170280888e-03 -1.131000355421547723e-03 -2.078099997444491157e-02 1.989000035369415179e-03 -2.057999871336938826e-03 -2.179000000892330341e-02 -2.850000502415582981e-04 -7.570000410067498310e-04 -1.947399999767069484e-02 -7.550001898465268741e-04 9.969999221894380263e-04 -2.073299999682838915e-02 1.346000017862083314e-03 -1.721999918536804008e-03 -2.035800000570966301e-02 9.199997397571871597e-04 1.991000049735144536e-03 -1.986700000706703023e-02 3.999978893564102656e-05 1.271999982239577220e-03 -2.080900000149136717e-02 3.309999232502817339e-04 -4.699999952875349215e-04 -2.034400000135760250e-02 3.299981371995658975e-05 9.839999822535555607e-04 -2.026500000116504899e-02 -1.521000076736448792e-03 -4.720001353797439081e-04 -2.036899999113283080e-02
-3.948999996736765952e-03 -1.200002997157044470e-04 -1.052999978082225447e-03 -3.803998306896141154e-03 -2.127000027241562202e-02 1.529900004224363230e-02 5.890000031483754459e-04 -1.159999564716334748e-04 -1.019000003135325056e-03 -3.796999864359181572e-03 -1.577000284205414904e-03 2.966000022534119422e-03 -3.223600107686364069e-02 1.615999758828040242e-02 2.632700016179621849e-02 -5.129299972876033564e-02 -4.074003885976290248e-03 -6.680999712800630118e-03 1.825399926982820137e-02 1.089100139747766274e-02 1.694199988836179310e-02 -2.044000038070683568e-03 6.329998471857568518e-04 1.776000010650295767e-03 -1.314000102994154501e-03 1.373999900788649932e-03 1.670000058806338098e-04 5.899999320876518670e-05 1.530000053272121741e-04 8.659999995215003979e-04 -1.294999924055189157e-03 -1.124000099581336232e-03 -1.641999991729049899e-03 -8.280000084307941087e-04 1.729999382201994089e-04 8.430000043976347080e-04 -3.500003145147691106e-05 4.559999979023219826e-04 5.499999997377073499e-04 1.870000188349818786e-04 -2.169999854186342248e-04 4.389999991845431855e-04 -5.199999947731896504e-04 -7.000038477689716510e-06 8.510000028773169597e-04 6.910000575685472509e-04 -7.089999470252930170e-04 7.149999968939832863e-04 1.064090001189459955e-01 -2.049919335409611308e-04 1.873999941284246878e-02 -5.819000754825051809e-03 2.648999459568341253e-03 -1.004519999705259792e-01 3.151000079266103385e-03 4.160002583484111063e-04 2.005999998219140310e-02 -6.137999655295970150e-03 -3.360000447825943135e-03 1.641100003723709733e-02 -2.139000274814645709e-03 5.002999856967792029e-03 1.876200000680959198e-02 -3.938999689386026015e-03 -2.559000276721398476e-03 2.121000002429883693e-02 9.760000298405825669e-04 1.042000093476022453e-03 1.968299999357179045e-02 -8.059999810444846416e-04 1.232999959347178117e-03 2.032800000321738701e-02 5.770000948176029184e-04 1.660000630688115086e-04 1.945199999664922949e-02 1.892000085411930368e-03 2.800001623807594217e-04 1.930999998927674863e-02 5.370001581156798797e-04 -5.999999389854881451e-04 2.042399999763516369e-02 9.130000812886835413e-04 3.370000883726988672e-04 1.934399999462375203e-02 -3.246999633529869603e-03 -3.252000223761959165e-03 2.183400002117131741e-02 3.340002192444540131e-04 -1.432999954677047390e-03 2.008499999958775553e-02 -1.149999811261475605e-03 -1.043000067095145502e-03 1.990200000738966135e-02 -1.800999958297816710e-03 7.769998819704620552e-04 1.820100000916513236e-02 -2.111100001546336105e-02 -3.900016047662202383e-04 -8.144999883080768222e-03 1.416300059914154044e-02 -7.627998924825163049e-03 4.027999929441717156e-03 1.776999859593657131e-03 4.000001144613794129e-04 -1.995600001020833569e-02 -8.796999518399592141e-03 -6.922000672903829213e-03 -7.592999944527608486e-03 5.835999963535488944e-03 -1.031999579344513359e-03 -2.074600003118303587e-02 2.058998760542084423e-03 1.685600016212245728e-02 6.406999971797555649e-03 -4.417000029292295071e-03 -1.128000354797526958e-03 -2.076199997449206316e-02 1.983000035101661115e-03 -2.052999871770743064e-03 -2.177000000889518089e-02 -2.810000501808398977e-04 -7.570000406932411718e-04 -1.946299999769277381e-02 -7.540001897582091503e-04 9.969999222810502909e-04 -2.071699999683390692e-02 1.344000017701430742e-03 -1.718999918676078053e-03 -2.034600000570161576e-02 9.179997399691659831e-04 1.989000049594871061e-03 -1.985600000705399146e-02 4.299978942418941532e-05 1.266999982486445488e-03 -2.078900000150292818e-02 3.309999233441192693e-04 -4.699999952705539844e-04 -2.032700000135760285e-02 3.299981402964519806e-05 9.809999822685386197e-04 -2.025000000116205373e-02 -1.522000076897101232e-03 -4.690001354433877495e-04 -2.035699999113030692e-02
-3.947999996731245929e-03 -1.200002996390753143e-04 -1.051999978087745421e-03 -3.801998308133824455e-03 -2.125400027226935148e-02 1.529400004221661072e-02 5.900000032295256176e-04 -1.169999563950043392e-04 -1.018000003139846264e-03 -3.796999864278031642e-03 -1.578000284204416053e-03 2.967000022535118322e-03 -3.220700107588209127e-02 1.614599759045969377e-02 2.631300016165012690e-02 -5.124599972904630291e-02 -4.070003882418671108e-03 -6.677999713064058755e-03 1.824099927031897633e-02 1.088400139648747905e-02 1.693499988844054255e-02 -2.044000038059643788e-03 6.329998471877546027e-04 1.778000010650295816e-03 -1.314000102988634611e-03 1.373999900789648699e-03 1.680000058806338070e-04 5.899999313865478566e-05 1.540000053282110197e-04 8.669999995205015467e-04 -1.294999924130819415e-03 -1.123000099581336316e-03 -1.641999991730048883e-03 -8.290000084307941330e-04 1.729999381445691516e-04 8.430000044031545981e-04 -3.500003152710716832e-05 4.569999979023219526e-04 5.499999997367084744e-04 1.880000188405017388e-04 -2.169999853420050921e-04 4.399999991790233740e-04 -5.219999946865197700e-04 -8.000038626952474778e-06 8.530000028893555556e-04 6.920000575795870554e-04 -7.089999469476650088e-04 7.169999968884634449e-04 1.063890001188278478e-01 -2.029919350475730018e-04 1.874599941295086725e-02 -5.823000754605904723e-03 2.647999459291791504e-03 -1.004259999705029022e-01 3.149000079103802825e-03 4.180002581951528895e-04 2.005799998220044247e-02 -6.140999655430670959e-03 -3.358000448049836689e-03 1.641400003725166160e-02 -2.141000274733495610e-03 5.001999856817531884e-03 1.876300000682162850e-02 -3.941999689321435719e-03 -2.560000276950287132e-03 2.120800002431639381e-02 9.770000300729933616e-04 1.039000093552651513e-03 1.968399999356926916e-02 -8.079999809743742146e-04 1.231999959194918920e-03 2.032700000322942846e-02 5.770000946608226221e-04 1.680000630678126275e-04 1.945099999664723009e-02 1.892000085422970148e-03 2.800001623827571727e-04 1.931199998927674716e-02 5.370001581802704652e-04 -6.009999389874859203e-04 2.042199999763616089e-02 9.130000812020135038e-04 3.380000883707010863e-04 1.934199999462275429e-02 -3.245999633611020268e-03 -3.251000223687327759e-03 2.183300002116480079e-02 3.310002191633039555e-04 -1.431999954904936796e-03 2.008399999960331847e-02 -1.151999811337105911e-03 -1.042000067246405884e-03 1.990200000739970193e-02 -1.800999958308856490e-03 7.769998819684643043e-04 1.819900000916513383e-02 -2.111100001530106032e-02 -3.920016047642224276e-04 -8.142999883078771289e-03 1.416100059914154018e-02 -7.627998924976423997e-03 4.027999929452756936e-03 1.773999859626776291e-03 4.000001142404818939e-04 -1.995000001019177349e-02 -8.796999518517732014e-03 -6.920000672897835478e-03 -7.586999944529606091e-03 5.823999963282646200e-03 -1.027999580243086578e-03 -2.073700003112079193e-02 2.046998761399969075e-03 1.684400016120590413e-02 6.397999971875780074e-03 -4.413000029480546732e-03 -1.125000354488013728e-03 -2.075499997451714027e-02 1.971000034719637851e-03 -2.046999872665320949e-03 -2.175700000883493482e-02 -2.810000502399105930e-04 -7.560000406902446296e-04 -1.945999999769377001e-02 -7.540001897306099167e-04 9.969999222860445598e-04 -2.071199999683390885e-02 1.342000017712470690e-03 -1.718999918825340817e-03 -2.034400000569057745e-02 9.159997400243646186e-04 1.989000049453599518e-03 -1.984600000704295208e-02 4.299978985201940085e-05 1.261999982495435680e-03 -2.078000000149793705e-02 3.309999232960882999e-04 -4.689999952655596370e-04 -2.032200000135860052e-02 3.299981414391444208e-05 9.799999822755307236e-04 -2.024300000116105447e-02 -1.522000076869501999e-03 -4.690001354383933722e-04 -2.035199999113030539e-02
-3.944999996574464693e-03 -1.220002994111856479e-04 -1.050999978102307207e-03 -3.794998311171722451e-03 -2.121500027175592801e-02 1.527800004213901615e-02 5.870000033106755836e-04 -1.179999566208962192e-04 -1.017000003122287694e-03 -3.792999864429292059e-03 -1.576000283901894975e-03 2.967000022511041227e-03 -3.215500107385441814e-02 1.611699759436250115e-02 2.628300016139206025e-02 -5.115799972944488905e-02 -4.064003875753220002e-03 -6.667999713555799492e-03 1.820499927190004363e-02 1.086200139374980493e-02 1.691999988866123641e-02 -2.044000038076203458e-03 6.329998471847579763e-04 1.775000010650295851e-03 -1.312000103064264820e-03 1.374999900940909129e-03 1.680000058685952326e-04 5.599999320876519510e-05 1.530000051003213752e-04 8.659999995380599598e-04 -1.294999924189890218e-03 -1.122000099578339448e-03 -1.638999991731047686e-03 -8.240000083551638627e-04 1.719999385227204407e-04 8.430000043765541315e-04 -3.500003144043719862e-05 4.559999979043197335e-04 5.519999997377072901e-04 1.870000188349818786e-04 -2.169999854186342248e-04 4.389999991845431855e-04 -5.189999946865198055e-04 -8.000038400061701288e-06 8.530000028727959937e-04 6.880000574283265521e-04 -7.069999472501859892e-04 7.169999969085450375e-04 1.063300001186213845e-01 -2.009919395197469949e-04 1.873599941327453930e-02 -5.824000754163739454e-03 2.644999459255117317e-03 -1.003869999704943977e-01 3.144000078995053647e-03 4.190002578110082663e-04 2.005199998222704713e-02 -6.142999655598490975e-03 -3.356000448204094107e-03 1.641100003726069997e-02 -2.145000274750055377e-03 5.001999856512014120e-03 1.876000000684370853e-02 -3.944999689225373203e-03 -2.562000277187166490e-03 2.119800002433495228e-02 9.750000302557251808e-04 1.036000093393400030e-03 1.967599999358330548e-02 -8.069999810185330942e-04 1.231999959262558174e-03 2.031900000322390751e-02 5.770000946332232801e-04 1.680000630628182502e-04 1.944599999664723203e-02 1.891000085395370999e-03 2.800001623021325381e-04 1.930699998928226899e-02 5.360001580014105843e-04 -5.989999390681106147e-04 2.041699999763968432e-02 9.120000811688944642e-04 3.380000882890775763e-04 1.933599999462827165e-02 -3.245999633795399689e-03 -3.249000223693320963e-03 2.182700002116279986e-02 3.270002190821538735e-04 -1.430999955208456893e-03 2.008299999962440130e-02 -1.152999811207924873e-03 -1.044000067326031692e-03 1.989800000740721969e-02 -1.803999958174155394e-03 7.749998817385768575e-04 1.819600000918368890e-02 -2.110700001523095268e-02 -3.930016044627002983e-04 -8.143999883099852649e-03 1.415400059903831192e-02 -7.626998925510829717e-03 4.022999929490396302e-03 1.771999859962416395e-03 3.960001140952145891e-04 -1.994400001017673785e-02 -8.799999518355434286e-03 -6.922000673122728764e-03 -7.584999944511048621e-03 5.807999962760402105e-03 -1.019999581438187693e-03 -2.072200003104046617e-02 2.028998762078993399e-03 1.683400015983057066e-02 6.383999971985126511e-03 -4.406000029997270487e-03 -1.117000353942619942e-03 -2.073899997456377098e-02 1.952000033760171484e-03 -2.032999874084316389e-03 -2.173900000874404506e-02 -2.820000505258720845e-04 -7.520000407628781632e-04 -1.945699999769224392e-02 -7.540001896273804257e-04 9.959999222910389128e-04 -2.070699999683290812e-02 1.339000017610888788e-03 -1.716999919043241769e-03 -2.033500000567601412e-02 9.149997398140333844e-04 1.992000049380965743e-03 -1.984300000704043027e-02 4.199979096604156077e-05 1.247999982429794054e-03 -2.077000000147843223e-02 3.309999233937980091e-04 -4.699999952615641053e-04 -2.031800000135760079e-02 3.299981424714397367e-05 9.789999822805250766e-04 -2.023800000116005374e-02 -1.524000076760752666e-03 -4.700001355836606041e-04 -2.034599999111826735e-02
-3.938999996860426123e-03 -1.180002989544074891e-04 -1.047999978139421869e-03 -3.786998316273716605e-03 -2.114900027117086120e-02 1.525800004202893141e-02 5.820000027867838766e-04 -1.109999569980486497e-04 -1.016000003101680564e-03 -3.783999865089533125e-03 -1.568000283231211437e-03 2.957000022453371620e-03 -3.207000107058130545e-02 1.606999760074013378e-02 2.623200016096981918e-02 -5.101499973036735525e-02 -4.051003864927105701e-03 -6.656999714358124119e-03 1.814799927414909725e-02 1.083000138940791446e-02 1.688899988900783092e-02 -2.039000037924943148e-03 6.309998475629093224e-04 1.775000010624694369e-03 -1.308000102604963289e-03 1.368999901244429430e-03 1.690000058525090577e-04 5.999999386735808119e-05 1.440000053988469276e-04 8.619999995249705066e-04 -1.292999924114260129e-03 -1.123000099427079066e-03 -1.638999991741088699e-03 -8.290000083071328522e-04 1.709999381395747528e-04 8.380000044051523359e-04 -3.200003121906628466e-05 4.529999981302116653e-04 5.509999997241443303e-04 1.860000187538317612e-04 -2.159999854952633603e-04 4.379999991890642301e-04 -5.159999947842294418e-04 -7.000038177166439219e-06 8.490000028552375675e-04 6.840000573896875494e-04 -7.069999475596991465e-04 7.099999969306245362e-04 1.062500001183944859e-01 -1.979919455701676116e-04 1.873599941371313291e-02 -5.825000754138941715e-03 2.649999459252404873e-03 -1.003139999704938667e-01 3.140000079048604464e-03 4.180002575044917653e-04 2.004799998225012189e-02 -6.142999655382639333e-03 -3.359000448206092039e-03 1.640900003726369905e-02 -2.147000274189171838e-03 4.993999856352761973e-03 1.875200000686274085e-02 -3.944999688740120740e-03 -2.569000277195157989e-03 2.119000002434194563e-02 9.720000308386878224e-04 1.028000093162513779e-03 1.967199999360785476e-02 -8.119999808523606930e-04 1.228999958873419184e-03 2.030800000325450397e-02 5.740000944858348123e-04 1.690000628229420675e-04 1.943299999666279337e-02 1.893000085236942655e-03 2.810001624384099450e-04 1.929199998927022888e-02 5.370001578485024320e-04 -5.979999390064645896e-04 2.040299999763316510e-02 9.110000811672467778e-04 3.370000881994630925e-04 1.932199999463479062e-02 -3.250999634239788803e-03 -3.244000224083458742e-03 2.181500002118540518e-02 3.260002184975435268e-04 -1.423999955294075843e-03 2.007299999962292719e-02 -1.150999811576684101e-03 -1.040000067186757585e-03 1.988600000739218499e-02 -1.808999958694175198e-03 7.809998813484391031e-04 1.818400000920529502e-02 -2.109900001545783957e-02 -3.900016038576582214e-04 -8.143999883147007637e-03 1.414200059838359100e-02 -7.618998926427382815e-03 4.013999929548643653e-03 1.764999859720614095e-03 4.000001135767904613e-04 -1.993300001014209483e-02 -8.800999518879325245e-03 -6.915000673197360843e-03 -7.583999944512520401e-03 5.782999962260237242e-03 -1.011999583309965622e-03 -2.070300003091046087e-02 2.001998764285535526e-03 1.680300015776358194e-02 6.358999972165127641e-03 -4.395000030410764653e-03 -1.110000353089710774e-03 -2.071799997463148399e-02 1.924000032990604752e-03 -2.020999876176991089e-03 -2.171400000860147436e-02 -2.840000502807740290e-04 -7.540000408971578435e-04 -1.943999999767920608e-02 -7.500001890151706098e-04 9.889999226085433373e-04 -2.069199999684799562e-02 1.335000018125388809e-03 -1.722999919334774989e-03 -2.032400000564794224e-02 9.129997401347615888e-04 1.989000049246686039e-03 -1.982600000702639323e-02 4.099979194149064164e-05 1.236999982380134833e-03 -2.074400000146192288e-02 3.289999230172943904e-04 -4.639999953988403801e-04 -2.030400000135255262e-02 3.199981448120231396e-05 9.769999822198780111e-04 -2.022300000115253779e-02 -1.522000077131736243e-03 -4.640001354174169202e-04 -2.033099999113530121e-02
-3.951999998175964937e-03 -9.900029991562558592e-05 -1.025999978086642372e-03 -3.786998320095515819e-03 -2.110000027119183705e-02 1.523700004197998774e-02 5.750000034398568965e-04 -1.199999575324548298e-04 -1.021000003054051792e-03 -3.778999863303653291e-03 -1.593000282872038742e-03 2.938000022450744028e-03 -3.196700106719169848e-02 1.601999760845912446e-02 2.616100016045121851e-02 -5.085499972978826944e-02 -4.058003852817274396e-03 -6.647999715234309201e-03 1.808799927539452360e-02 1.081200138484912469e-02 1.686799988935700281e-02 -2.022000037876912903e-03 6.299998488436292943e-04 1.770000010531855641e-03 -1.289000103744937118e-03 1.383999902680405156e-03 1.680000057326486672e-04 7.099999377516823804e-05 1.450000062277831284e-04 8.589999994632530923e-04 -1.289999926674648915e-03 -1.089000099198190585e-03 -1.636999991791609869e-03 -8.310000090358362398e-04 1.809999379933086147e-04 8.430000044062032662e-04 -4.800003198805625478e-05 4.619999969041454352e-04 5.349999998034720870e-04 1.890000178793878436e-04 -2.039999852623793964e-04 4.439999991605181459e-04 -5.289999944596289515e-04 -1.100003915636427063e-05 8.530000029309911958e-04 6.910000576331378364e-04 -7.099999470272907922e-04 7.129999968949821132e-04 1.061260001171844131e-01 -1.819919549483196115e-04 1.873599941438161207e-02 -5.831000753668105600e-03 2.650999458897512241e-03 -1.002149999704617378e-01 3.146000078478906024e-03 4.240002579372968532e-04 2.002699998221101063e-02 -6.145999656242172662e-03 -3.348000448437977138e-03 1.640400003726926945e-02 -2.164000274050599179e-03 4.990999855051064978e-03 1.873600000695957446e-02 -3.940999689324730694e-03 -2.562000276902625436e-03 2.118000002431287207e-02 9.810000302761568997e-04 1.035000093837192686e-03 1.966599999355118575e-02 -8.069999811013309036e-04 1.231999959247574933e-03 2.030400000322390638e-02 5.710000945449055431e-04 1.680000625930546721e-04 1.942999999668034924e-02 1.893000085122673384e-03 2.820001624314178411e-04 1.928499998926922962e-02 5.440001583558347342e-04 -6.049999384810482439e-04 2.039899999760151975e-02 9.110000822575417328e-04 3.220000881914721036e-04 1.931399999464977410e-02 -3.238999633787655388e-03 -3.251000223189880189e-03 2.180100002112616078e-02 3.200002193515558255e-04 -1.434999955743862044e-03 2.007699999966703480e-02 -1.147999811945443413e-03 -1.036000066971853439e-03 1.987400000737163039e-02 -1.815999958917193695e-03 7.829998808060418614e-04 1.817100000924193673e-02 -2.109500001507969014e-02 -3.950016035551372055e-04 -8.143999883164092929e-03 1.412300059847578122e-02 -7.619998927861360884e-03 4.016999929654519429e-03 1.755999859550569451e-03 4.040001129200912000e-04 -1.990900001009641290e-02 -8.794999519482721989e-03 -6.906000672729594066e-03 -7.569999944554630690e-03 5.741999961070008533e-03 -9.939995863798411352e-04 -2.067200003070212774e-02 1.968998765470244931e-03 1.678500015523582203e-02 6.326999972365262778e-03 -4.375000031872044483e-03 -1.089000351554131199e-03 -2.069499997476285588e-02 1.882000030811662459e-03 -1.989999879323496070e-03 -2.168400000840060154e-02 -2.930000509708383018e-04 -7.440000415658436271e-04 -1.942799999763951749e-02 -7.470001890080030932e-04 9.899999228504172653e-04 -2.067699999686555684e-02 1.334000018590210000e-03 -1.728999919408407641e-03 -2.032200000563642861e-02 9.029997416026313336e-04 1.972000048523346160e-03 -1.979300000695421655e-02 4.999979388909333330e-05 1.212999983084780227e-03 -2.072000000148762830e-02 3.149999236720152276e-04 -4.719999964486740261e-04 -2.029500000126728543e-02 3.599981558583248404e-05 9.639999825443743096e-04 -2.020100000116163350e-02 -1.522000076659747476e-03 -4.690001354004360505e-04 -2.031399999113030555e-02
