-1.412881161009999914e+03
-1.412881162720000020e+03
-1.412881165929999952e+03
-1.412881171009999889e+03
-1.412881177709999974e+03
