9.860990340816378624e-03 1.626600399991138812e-01 3.365095390177328619e-03 2.148905310192909552e-03 2.583031989344852092e-03 2.375050885738217658e-03 3.197774177441177652e-03 -2.889239590062598869e-04 5.540134317505537864e-03 2.020938367531414058e-03 -6.105981789617349713e-03 1.396168864966118193e-03 -2.967129935679549239e-03 -2.231953044925590653e-03 3.147910823076420245e-03 1.748746158119255886e-04 2.540435872709667403e-04 3.084003522130143032e-03 2.454795736881642751e-02 -1.057100726804246701e-02 8.441494878071712686e-04 2.878875096709311923e-03 1.950412857439692762e-04 3.071114467811691950e-03 1.650781167357054033e-02 1.638053085949539795e-03 4.656648992305464571e-03 -1.281260081950222427e-04 -2.295603367531957406e-05 3.093995110943439323e-03 9.880895477521446321e-06 5.704147639352497528e-05 2.925999596355988771e-03 4.086886789112911052e-05 -1.395437960036146313e-05 3.220001865050277617e-03 3.887270899747957822e-05 5.504430342370607927e-05 3.127000805429348655e-03 9.387520308457727677e-05 1.604338133953662731e-05 3.065003598066570398e-03 -3.012641399250052450e-05 -1.769560111488503208e-04 3.101001284955915566e-03 3.488131123453227378e-05 -3.595871330554781730e-05 2.914001932920423903e-03 3.487435974947395622e-05 3.104372526850028682e-05 3.086000982850381144e-03 -1.413444369710013216e-05 1.250468543852248360e-04 3.303997654616257825e-03 1.487562130354750708e-05 -2.195671275568520983e-05 3.054000919884569416e-03 -7.612481555520708579e-05 4.404352862385578065e-05 3.065996278543574143e-03 -2.612142403833514178e-05 7.042298542967496604e-06 2.981998839241464111e-03 1.487691815180261127e-05 7.404286190077599054e-05 3.023999558847165030e-03 6.587481781447668847e-05 -7.956469133993261030e-06 3.074002798140696054e-03 -8.712447413287514734e-05 1.204340963988119261e-05 3.056996284311008956e-03 4.687286090417559949e-05 4.104424044996673614e-05 3.123001329688564458e-03 -2.912493707306069556e-05 -1.629565223338909461e-04 3.065001127221543553e-03 -4.125952664150249450e-06 4.804386922599947402e-05 3.093999153707771826e-03 1.461071357503106259e-04 2.589626547658272285e-04 -2.625997724355349280e-03 4.213278273874482136e-05 -1.140462950206162389e-04 -3.262996670425938068e-03 -1.198776838499969927e-04 9.195753220858366838e-05 -3.002006188065718586e-03 -2.785477538195474002e-05 -3.405055026874064916e-05 -3.567000654823995667e-03 3.091272499181052231e-04 -2.110446042462324977e-04 -3.128984422840199939e-03 -1.578752916002810331e-04 -1.810433453889441241e-04 -3.066003864869140151e-03 8.511519516810049939e-05 -2.130402322274644244e-04 -2.832993516230484371e-03 -1.087314602987672582e-05 -1.450441977383671460e-04 -3.117998389255171796e-03 -1.378777151030633071e-04 2.079575888242064222e-04 -2.999008565664389517e-03 2.379994076860412339e-02 7.271003963364297898e-03 1.594866068256625734e-03 2.876116622150400818e-03 1.039571712422415994e-04 -2.861884358659078434e-03 1.732008907181521729e-02 -5.003045943073669739e-03 -2.283223781384830994e-03 1.823222884613002906e-04 -4.075113465212830931e-03 -7.992934806988687829e-03 -5.688178685454478421e-05 1.039959169941904755e-03 -2.883017063282487628e-03 -8.738127818731927787e-04 -2.828065270480294244e-03 -4.651995490984299139e-03 2.748063129211245244e-03 -1.437024524089653473e-03 -1.577867724188122822e-03 2.601194756133526700e-03 1.442930547864575358e-03 -4.754914539158688024e-03 9.878072141225007277e-03 -1.660329000060632861e-04 -1.774595404273897250e-03 1.712595267834936518e-05 3.956134767603663153e-06 -3.092999361581336842e-03 -2.487560486519159258e-05 -9.043293589023436367e-06 -3.055000887581483561e-03 3.412467229601900644e-05 -1.904343902935606606e-05 -3.061998343267125899e-03 -7.687156248887283831e-05 4.955343523624353308e-06 -3.154003203462399981e-03 4.212447492879032424e-05 -6.304338857770814977e-05 -3.057997393682442781e-03 5.512625493132896335e-05 2.595600576696433952e-05 -3.099998126093283460e-03 -2.587100500156920018e-05 -6.304490906925486529e-05 -3.169000162597133182e-03 -5.687450537597048755e-05 -9.043651333621251953e-06 -3.082002190623620106e-03 9.128111648097339133e-06 -4.704462456423530990e-05 -3.146998964232010886e-03 1.400101722581519424e-05 -1.000365406729451925e-06 -2.499941570708094014e-05 -5.500612842831404623e-05 2.600218390926732425e-05 1.509973915909690876e-04 -1.809929457916374088e-04 -9.200233938260967987e-05 -1.750060659571334024e-04 -6.599972662800050207e-05 3.699996660724408473e-05 -6.003212147844393261e-06 6.000270549790431753e-05 -8.100101106168832799e-05 -6.799640828687946142e-05 2.499933830933211953e-05 9.100023561623880267e-05 1.799972782806962817e-05 7.801053958070835461e-05 -9.003733121791933510e-06 -2.589966959329757421e-04 5.099717063040263605e-05 -2.499906166240360285e-05 6.900243114335134103e-05 -1.599685432057470973e-05 -3.900109333616818896e-05 -7.800009852833396839e-05 8.635968565252066451e-03 -1.027996100149055269e-03 7.523662393120294752e-04 5.237970331603664445e-03 -1.011994049174931055e-03 7.092276430556924537e-04 -1.566722620442325131e-01 -2.464979276756970594e-02 5.957969659139197675e-03 -4.595817187186433325e-03 -1.011706280912323848e-02 -4.684043712244494867e-03 6.710404547928070645e-04 1.583985821232959017e-03 -9.629951329910295572e-04 7.421991053956828767e-03 -1.650200719915782127e-02 -9.746380829917601673e-05 6.580327373358755335e-04 -3.484012863720005113e-03 -8.709238095423653360e-04 -5.309328196855294313e-04 1.390977405068855683e-03 -1.623041342532187707e-03 3.389873930096631936e-03 -5.034960134641088859e-03 2.999209425936477137e-03 2.899687314053751410e-05 1.150010973273518584e-04 7.899955038844537079e-05 -7.799705312194840114e-05 7.099905444307175737e-05 -7.100418278159178250e-05 -1.590011580488545531e-04 2.900053564953079365e-05 2.899311420257355388e-05 4.996728224329321168e-06 -1.799886968953711821e-05 8.000045872963012106e-05 6.899732172024985023e-05 -9.199914663855685872e-05 6.400411403347173100e-05 2.400288802544125869e-05 -4.001025414975285139e-06 -7.099896592251784687e-05 4.099919260135575399e-05 9.000251452157568148e-06 2.000154193643260972e-05 -1.100044559437758163e-05 -4.899984960414888429e-05 1.000024677175162731e-05 -2.500055050666929728e-05 -2.699979611103446684e-05 1.299936476625091815e-05 2.209202593829540442e-02 -9.332028880269117171e-03 -8.159680873089736677e-04 -2.141844046500242411e-03 -3.470446043720827682e-05 2.072691329361169357e-02 -4.473029019732209684e-03 -2.604564532600210647e-02 2.476918714735585128e-02 1.186415723285996326e-03 -3.937946007169195600e-02 3.814860666123414540e-02 -2.527883734152018991e-03 -1.730690802546483702e-03 2.166892161997432259e-02 7.440966739753214878e-04 -2.786861481584442749e-04 2.217803427201345615e-02 1.299250902450819643e-03 -1.241740543313381772e-03 1.837207052881009717e-02 -5.479800893622645448e-04 -2.208658935767013418e-03 2.402600902203940597e-02 -5.650791158495182750e-03 -3.946721192800151101e-03 1.935282586883307551e-02 -7.084933161576960597e-05 2.382958319526052985e-04 2.086199375583943499e-02 -1.968563645629101339e-04 4.529832667699393328e-05 2.103099136116344178e-02 -9.187501484468500788e-05 -5.869529045243241619e-05 2.148699711091631159e-02 2.161322979519123610e-06 1.229200352310267773e-05 2.059599993288338191e-02 2.112543761732988776e-05 -2.086955774050114245e-04 2.147300383905002136e-02 1.381513416094396146e-04 1.102953989412006584e-04 2.084300408126870535e-02 4.515370655464449640e-05 -4.170539307035064978e-05 2.078200244930630131e-02 -1.188602919003972695e-04 -8.170040167113903819e-05 2.112499633787840933e-02 -3.258421826835273378e-04 -4.470653453580605526e-05 2.068098738449771976e-02 9.813787085532541909e-05 6.830010893775083532e-05 2.117300304759395929e-02 1.271456461360132137e-04 1.329736409969721341e-05 2.098100500845411290e-02 -1.018592957835917943e-04 -5.700741079028710124e-06 2.110199595264423272e-02 -4.585953782933913184e-05 -5.470071403289686356e-05 2.110699892771765798e-02 1.613881607200221439e-05 -2.470018129207298519e-05 2.114800102703940851e-02 7.613956775315947902e-05 -1.047005118196846945e-04 2.112800460453014700e-02 2.513729528913442247e-05 -4.269966375879534243e-05 2.118500164869241420e-02 -4.686321989276483288e-05 2.730059109900616723e-05 2.119899772433467625e-02 -4.085955117921673214e-05 -1.237007321187170213e-04 2.110600010958852205e-02 -3.851352404766958935e-04 1.001699491851281701e-03 -2.121702990464423635e-02 4.318931596772347930e-04 1.936887434567839488e-04 -2.192998517941319170e-02 -4.750955035055064711e-04 2.136855122051701758e-04 -2.220802239652198973e-02 1.234839370574532377e-03 -6.129322728472433670e-05 -2.061394886646340796e-02 -1.098185365538181541e-03 -3.472828654930517657e-04 -2.001203981392832981e-02 3.863350560369521883e-06 -3.283006849999854562e-04 -2.120799520781610839e-02 -5.741448160767024817e-04 -8.252975244191897240e-04 -2.101701169829716179e-02 -1.481329552209097601e-04 1.766982855630960185e-04 -2.128900855708073039e-02 3.848797567250999800e-04 -5.413067536627609675e-04 -2.161497667292986563e-02 -5.626133621325588377e-03 1.139703070941794480e-03 -2.125424527912190067e-02 -1.099179744244470347e-03 1.747153204795142746e-04 -2.014004725532272597e-02 1.813051382952145891e-03 1.159632836507039268e-03 -2.579694263604254828e-02 2.278205711844705683e-04 2.137714706579583231e-03 -2.011002104973086402e-02 -2.029158331138611847e-03 6.337087186994640620e-04 -2.065709163282708830e-02 1.217865393290478142e-03 -2.241302868832663071e-03 -2.129491865056046609e-02 8.430297991379514730e-03 -9.506112947342300681e-03 -7.500521942432649726e-03 -2.202135109312006959e-03 -1.327299765744090415e-03 -2.126507087437497917e-02 9.216354403044808852e-03 7.164523172852293141e-03 -3.312272631024111569e-02 -1.214617636090654259e-05 3.770274433973855332e-05 -2.096700104863518516e-02 1.985360436186417435e-05 6.970280434740777533e-05 -2.096100019926196156e-02 -4.714673547859019959e-05 -2.970439402254305300e-07 -2.095400193512204912e-02 5.685268964195110738e-05 -6.296926882085694017e-06 -2.093999761509996588e-02 1.785069594526544662e-05 4.770381253908873389e-05 -2.088999996885886404e-02 -6.314634001052199736e-05 -1.529717318872839623e-05 -2.096400237397991889e-02 3.854150176116633878e-06 3.870261838933633638e-05 -2.097500041127189560e-02 1.228530029166802684e-04 1.857029647096307477e-04 -2.094399764965066205e-02 -1.014721081362754063e-05 6.870311139330053123e-05 -2.094100140672832192e-02
9.864990566307357475e-03 1.625840398967450251e-01 3.358096630577263667e-03 2.152905964073752350e-03 2.586031759367839796e-03 2.359051006103205211e-03 3.189774416287838657e-03 -2.959240378083571746e-04 5.534134090988650223e-03 2.029938640032654274e-03 -6.121981895907269676e-03 1.389169458304500898e-03 -2.971129494799152910e-03 -2.240953197748447780e-03 3.136910787803112374e-03 1.668744004607584279e-04 2.390436644254250061e-04 3.089003409025138733e-03 2.458095684176885357e-02 -1.056800710957030154e-02 8.571507890498829317e-04 2.885875144476507566e-03 2.040412660842935353e-04 3.070114625258708180e-03 1.651481094137318903e-02 1.639053335668782608e-03 4.674649263156925409e-03 -1.261259666922675106e-04 -2.195604941920805940e-05 3.092995178208307779e-03 -1.119593163435289511e-06 5.704165514002704495e-05 2.937999148415471051e-03 4.986883656570634726e-05 -1.954372470741241242e-06 3.221002061403846137e-03 3.687287501679236269e-05 5.904424827811368412e-05 3.123000667280310776e-03 9.387479901047111116e-05 2.004352311708701943e-05 3.075003541346220653e-03 -2.812612189611786185e-05 -1.679561119603175117e-04 3.094001238804253585e-03 3.288155007621674657e-05 -4.295879680562200974e-05 2.908001950728643717e-03 2.887398543115538672e-05 2.104385756764360119e-05 3.095000880294542650e-03 -5.134247152526061517e-06 1.160467764501899030e-04 3.298998148708437092e-03 -1.267467613200484576e-07 -2.995587869780531393e-05 3.112000422439994193e-03 -6.612688762490074202e-05 5.004424386085288136e-05 3.116996600638094733e-03 -2.212325726302674347e-05 6.042933411875028610e-06 3.026999016260800267e-03 7.874274437301618753e-06 7.804378893804444898e-05 3.088999217029729082e-03 7.387270972704273390e-05 4.044261846186641438e-06 3.126002953726004108e-03 -8.212666679379488136e-05 2.004417132504353446e-05 3.110996374442958397e-03 3.387077553280886982e-05 3.004497369758921739e-05 3.174000956225488720e-03 -2.412669199119562313e-05 -1.679559166031670248e-04 3.108001401674644060e-03 -2.127457769742496773e-06 5.004439223823398250e-05 3.130999206759551949e-03 1.441086111050916840e-04 2.709621459299767329e-04 -2.661997975896747675e-03 3.613396991666944878e-05 -1.060467014795113264e-04 -3.291997028146194208e-03 -1.138756313579295903e-04 1.129568186187215233e-04 -3.052006241427164621e-03 -2.285330865228784705e-05 -3.305106458445531629e-05 -3.603000465364037969e-03 3.031284237752805482e-04 -2.200450107034137800e-04 -3.157984539538477228e-03 -1.578736220458405617e-04 -1.810439266785540224e-04 -3.107003864831026779e-03 8.111677309772320939e-05 -2.260407820281883789e-04 -2.871993494766709142e-03 -2.087157436386550722e-05 -1.660447428403076964e-04 -3.156998498694395944e-03 -1.228753587917980755e-04 2.009567547678387152e-04 -3.057007855553361703e-03 2.383994068634569252e-02 7.270003960400143669e-03 1.596867711266574796e-03 2.892116943985982829e-03 9.895704529244425532e-05 -2.869883636229206628e-03 1.734408889245691102e-02 -5.024045905152279938e-03 -2.279222506355089387e-03 1.783232994334567692e-04 -4.084113816524823776e-03 -8.017934842248981495e-03 -4.188149398537083197e-05 1.049959058951386573e-03 -2.890016594240848394e-03 -8.858130653419730950e-04 -2.826065161839975016e-03 -4.644996007996546328e-03 2.740062884109267273e-03 -1.438024432758811411e-03 -1.571868035782746044e-03 2.621194976959754716e-03 1.464930461313457407e-03 -4.759914036647814629e-03 9.903071814653979094e-03 -1.670328061585034873e-04 -1.766594372082292514e-03 1.912562299210304227e-05 -1.043753375521685289e-06 -3.084999209258254115e-03 -2.087597370678975723e-05 -1.204316912054735603e-05 -3.046000682173155300e-03 3.112385553098652203e-05 -2.204315312415789703e-05 -3.041998422914980564e-03 -7.687217565219347929e-05 1.955556190857235531e-06 -3.139003160943053608e-03 3.612394791356704314e-05 -6.004319956869393494e-05 -3.044997680552924586e-03 5.712575766028166771e-05 1.495617433562531595e-05 -3.087997888707338500e-03 -1.987136444194432156e-05 -5.404478616798083279e-05 -3.160000045880264046e-03 -5.587528142348056437e-05 -1.204338273820307406e-05 -3.063002107387141279e-03 3.127586983594514880e-06 -4.104443555552353488e-05 -3.133999293635783383e-03 1.099682219820873661e-05 -1.998902744717761148e-06 7.800047621238053570e-05 -4.400923027343969860e-05 1.700325280966451569e-05 2.269979670495530881e-04 -1.719952010917910688e-04 -6.000155247626071412e-05 -1.190061532099618262e-04 -9.000573213593244918e-05 6.400208371014367670e-05 1.419954276145346409e-04 3.699745879720694347e-05 -7.299916411798138167e-05 6.100254159151891585e-05 6.499429280986213987e-05 9.600196234251354339e-05 1.420012856580267718e-04 8.700509549287670620e-05 -4.500185451834482181e-05 -1.259958191694674227e-04 2.499454414529564042e-05 -5.099813392297920111e-05 1.330017409635781691e-04 -4.999426011206723006e-06 -4.700020874721152347e-05 -1.499953723542864927e-05 8.575976319500050460e-03 -1.005998746952622720e-03 5.623634843267899053e-04 5.193976442116881621e-03 -1.008996141392706856e-03 5.592258089443926999e-04 -1.557752553753030955e-01 -2.450479575255692932e-02 5.797004130116611628e-03 -4.547808310058139292e-03 -1.006506592329389077e-02 -4.901042494685619276e-03 6.680472003504143823e-04 1.565983470069732012e-03 -1.128994999799527157e-03 7.361998211521516254e-03 -1.641000961912372422e-02 -2.714675557427318983e-04 6.690406708633743786e-04 -3.441015622829597751e-03 -1.064923971076490007e-03 -5.209282613104626721e-04 1.387975809326115733e-03 -1.735040892686271017e-03 3.348878360891445211e-03 -4.992961633744379644e-03 2.891207161015912214e-03 3.997659369427208861e-06 7.900083334997769777e-05 5.899904278524424882e-05 -4.499604531477365601e-05 5.799867416062508014e-05 -9.600265465933990145e-05 -1.609996059788157592e-04 -1.700001571385873175e-05 -1.000631502575485204e-05 -3.003191110928942771e-06 -1.899889178105778549e-05 7.800014714244384419e-05 8.599815806300791237e-05 -6.399944350822148968e-05 4.400440932915560026e-05 1.300312922531077945e-05 -8.001101868386501913e-06 -7.699935713524867374e-05 3.199928737124965662e-05 2.600023014181844608e-05 1.800093442865281575e-05 2.200112684452423516e-05 -1.700041420247180366e-05 -2.799886309326773566e-05 -4.799885585880104270e-05 4.999640605041257465e-06 -2.800202546364217833e-05 2.202502672936049177e-02 -9.154029054671044760e-03 -8.319733392330220557e-04 -2.168835621940425843e-03 1.129264007320577489e-05 2.052091154216309499e-02 -4.470023170696725903e-03 -2.580464729908894458e-02 2.463018385280662040e-02 1.245428649081887443e-03 -3.914946455556186922e-02 3.783560580316972649e-02 -2.556875246221016786e-03 -1.811693757168455826e-03 2.145892158766369434e-02 7.311042315823212435e-04 -3.516887892198679094e-04 2.199103477779295809e-02 1.370255404407964709e-03 -1.212742158466522616e-03 1.826207300893764249e-02 -6.049740430663114611e-04 -2.235661003625019887e-03 2.387700708388901596e-02 -5.633788309617629095e-03 -3.948722198556560946e-03 1.928282658950814660e-02 -1.048432963339026056e-04 1.452937319145455788e-04 2.071199369000193899e-02 -1.558496621133568768e-04 2.429595524003364608e-05 2.086599332860475386e-02 -9.586777282541459352e-05 -1.186978251397691257e-04 2.130799779886511508e-02 -3.783513897566479731e-05 6.290801375357183194e-06 2.050899838919679335e-02 8.813081822263730690e-05 -1.496974871628942941e-04 2.134200573098078008e-02 1.051568608902690190e-04 1.382935107748770368e-04 2.070800234062873668e-02 -1.784151416692570803e-05 -2.270700254556573907e-05 2.066499961462393842e-02 -6.085450564637211450e-05 -2.470244615980854574e-05 2.098399789168632623e-02 -3.308347182284825040e-04 -2.870912515898972508e-05 2.049798695421936254e-02 4.114583808292068910e-05 5.029737472245514909e-05 2.097700098188738649e-02 1.271510518212794075e-04 2.954784542244546251e-07 2.084800519288867310e-02 -4.585213601435758737e-05 -1.470328021789006649e-05 2.092599836077537606e-02 -5.385021431748829079e-05 -5.670395448386417490e-05 2.087799863051925317e-02 -8.543506235296243510e-07 1.729746432280192839e-05 2.098099973947411753e-02 9.614684112044507430e-05 -7.270305113040841788e-05 2.095000496542420362e-02 2.614603067957029379e-05 -6.770271276527431610e-05 2.097000204405721768e-02 -1.885505069861548696e-05 7.297719440262023530e-06 2.099799914826062930e-02 -4.785078130491221733e-05 -1.047037748656624281e-04 2.089099955536492109e-02 -3.311474261891395954e-04 1.092703717076719608e-03 -2.091602899617455921e-02 4.298766199906688731e-04 2.366945153811541701e-04 -2.152298587087706633e-02 -5.161111653234355841e-04 2.336910027572111897e-04 -2.182302434999005072e-02 1.303826750166212469e-03 -1.092889003678529207e-04 -2.030494537647928310e-02 -1.117199093171928866e-03 -4.052780868710357197e-04 -1.967603976562656495e-02 -4.214919068659072997e-05 -4.312963105663975894e-04 -2.090199562095007915e-02 -5.131559775303451377e-04 -7.782936732929684673e-04 -2.074200988093576753e-02 -1.541480485432548128e-04 1.947035502213380917e-04 -2.091800905695045953e-02 3.168682476716722226e-04 -5.223026881048499969e-04 -2.133197971158832390e-02 -5.621144566666352524e-03 1.046706852507551209e-03 -2.098724375723384425e-02 -1.062189826613418831e-03 1.437187934272363555e-04 -1.989304530937017687e-02 1.811039024949944202e-03 1.134637133947546603e-03 -2.549394236332183303e-02 1.458113761783736925e-04 2.147717974966012380e-03 -1.988402453082838139e-02 -1.950168353990810143e-03 6.787121587536860219e-04 -2.041008905410882091e-02 1.236853444879941911e-03 -2.159298701268224079e-03 -2.099991903971512933e-02 8.322289378240343635e-03 -9.481109857088618545e-03 -7.288526694925732442e-03 -2.172145662278058241e-03 -1.283296103011616557e-03 -2.100507027681273314e-02 9.202339180489437984e-03 7.121528472136244396e-03 -3.274972627103594353e-02 -4.514965092568659269e-05 2.070397529293136445e-05 -2.088200215148031114e-02 1.085180873450083760e-05 6.470343521787322208e-05 -2.091700049490170452e-02 -1.147838113716858089e-06 -4.296697157170550552e-06 -2.092700000527694323e-02 5.584882273012640162e-05 -4.295579208731654322e-06 -2.084499768426465588e-02 2.484770453735644498e-05 7.570485621214979692e-05 -2.081600008085907755e-02 -5.314959687746209687e-05 3.770396737739145702e-05 -2.088300271826816837e-02 -2.314864075866797654e-05 1.070360362313997094e-05 -2.090700111382071125e-02 1.218505737464504356e-04 1.517038019859809285e-04 -2.088499720838240051e-02 2.384936547331795531e-05 6.470427570664496943e-05 -2.085699996558641744e-02