-4.702377493700000173e+02
-4.702377494899999988e+02
-4.702377497100000028e+02
-4.702377500399999803e+02
-4.702377504799999883e+02
-4.702377510700000016e+02
