-9.870061618417735533e-07 -1.717549999993579213e-01 7.180001715675491183e-04 -4.999971762644150177e-06 -4.000000007427402526e-04 -3.649999995728501296e-04 1.000612554090059095e-06 3.300011137548807867e-05 1.114249999999615132e-01 5.000028237355821842e-06 -3.999999999864376800e-04 -3.649999996280486512e-04 -1.435000205762410226e-03 2.730999891612412821e-03 1.420000051930609699e-04 1.435999793994131380e-03 2.734000108743885743e-03 1.389999893425592403e-04 2.789999949774250930e-04 7.000020287756069556e-06 -8.140000015470318703e-04 -2.790000051793536419e-04 8.999978085073424451e-06 -8.149999984689501598e-04 2.980000222292807327e-04 -2.339999766421046253e-04 8.209999985888201315e-04 1.000032966224197023e-06 -4.009999994469054183e-04 4.780000003950296214e-04 -2.979999777651976553e-04 -2.340000217167392967e-04 8.220000018786540559e-04 -9.999671116304739153e-07 -3.979999995711963308e-04 5.050000004030726726e-04 -1.343000196770154000e-03 2.613999898596367985e-03 1.680000048021027979e-04 -2.700000081510131795e-04 4.799997876175012717e-05 -8.189999985575850856e-04 2.699999916977247950e-04 5.000001960208924807e-05 -8.190000015403047342e-04 1.343999803235358019e-03 2.614000101815869108e-03 1.689999899702511194e-04 9.967928486691052349e-07 4.213999999643959493e-02 -3.640000042098174779e-03 -3.500000938383647552e-04 2.779999994595715260e-03 2.108999999915507281e-02 9.977748936414253161e-07 2.963900000306118540e-02 2.988999970388780177e-03 3.479999063239334238e-04 2.778000047387633401e-03 2.109199999530421074e-02 -9.000050601915038129e-06 2.113000019081101577e-03 1.978399999793905087e-02 9.999949409124621146e-06 2.113000020520074650e-03 1.978599999783417843e-02 -5.399999412081009234e-04 6.129999781882640355e-04 1.905000000236841198e-02 5.390000587273054448e-04 6.140000597953097251e-04 1.905199999641148806e-02 -1.956999902593330436e-03 1.359998714796735919e-04 1.951000001066650891e-02 2.000285443998514586e-06 -2.226999978673541419e-03 2.119900000221345768e-02 1.958000097260917741e-03 1.380001675731311187e-04 1.951099998905427707e-02 -2.632726342323805937e-10 5.003000020829565138e-03 2.085299999500262250e-02 -1.670800079543336217e-02 1.274999876692526311e-02 3.059000007949006991e-02 -2.636599887707299916e-02 -1.468600199185581684e-02 2.214000160206009305e-03 2.637000112288985856e-02 -1.468499800341155868e-02 2.220999869109912053e-03 1.670499920438768549e-02 1.275200129395406660e-02 3.058499989505314084e-02 1.725899896556256849e-02 1.298800129586519074e-02 -9.448000108240593373e-03 2.529100085637246004e-02 -1.407999812496569039e-02 -3.777300012553848341e-02 -2.529199914355728662e-02 -1.408100195057201270e-02 -3.777399984632663632e-02 -1.726000103422148033e-02 1.298499868518232861e-02 -9.449999917697704879e-03 -1.000489800744429567e-06 5.053999980459240697e-03 -1.948700000504280383e-02 2.003999876873770007e-03 1.070001307464415314e-04 -2.084000001116867104e-02 -1.999938831186808929e-06 -2.209000019314707412e-03 -1.918499999778244119e-02 -2.002000123137258510e-03 1.069998277696316717e-04 -2.084199998905612861e-02 5.709998322328909857e-04 6.620000218858231684e-04 -2.132300000381309388e-02 -5.690001679238860122e-04 6.639999356663305171e-04 -2.132399999752245673e-02 8.999728369480799076e-06 2.087999980102803708e-03 -2.060100000213533483e-02 -1.300027160291985996e-05 2.087999978443932318e-03 -2.059600000201389572e-02 3.719996840190068822e-04 2.769000008851129659e-03 -1.930500000481927617e-02 9.976448220385446052e-07 2.844199996314107290e-02 -3.697600002841556349e-02 -3.720003159975504895e-04 2.768999952579221085e-03 -1.930800000071250175e-02 -2.003311440018710474e-06 4.064799995692088691e-02 -4.297600004059129453e-02
1.298685809509830820e-08 -1.716629999992863032e-01 7.140001714701325886e-04 -5.999971605863776629e-06 -4.020000008173716288e-04 -3.639999995653325185e-04 -9.993875264833468342e-07 3.100011118227473936e-05 1.113829999999745440e-01 6.000028394136189794e-06 -4.019999999098085417e-04 -3.639999996315708202e-04 -1.431000205546558920e-03 2.727999891912935918e-03 1.400000051739781499e-04 1.430999794453432800e-03 2.728000108366733512e-03 1.399999893761517782e-04 2.809999949553456896e-04 7.000020435021078005e-06 -8.180000015580715308e-04 -2.810000050446526836e-04 6.999977930816284050e-06 -8.179999984559128100e-04 2.960000221591703169e-04 -2.329999767923662671e-04 8.219999985988610605e-04 3.296070434462232070e-11 -4.009999995235345510e-04 4.770000004005494872e-04 -2.959999778408279182e-04 -2.330000215654787850e-04 8.220000018666155086e-04 3.266699860550565079e-11 -3.949999994945671794e-04 5.060000003945562888e-04 -1.341000196526703509e-03 2.610999898750624836e-03 1.710000047940597170e-04 -2.700000084424944826e-04 5.199997876374786013e-05 -8.169999985615806473e-04 2.689999915519841463e-04 5.200001952745785390e-05 -8.180000015367827875e-04 1.340999803467768717e-03 2.611000101589976922e-03 1.699999899898073320e-04 9.967961079377574736e-07 4.209799999645457563e-02 -3.625000042056221970e-03 -3.500000936721923950e-04 2.776999994584727557e-03 2.107899999915806982e-02 -2.223507083450422343e-09 2.961800000298755314e-02 2.990999970415276609e-03 3.499999063222857020e-04 2.777000047524909310e-03 2.107799999529417004e-02 -8.000050581483335690e-06 2.112000019146743814e-03 1.977399999793453059e-02 7.999949418516616152e-06 2.112000020356827931e-03 1.977399999784621235e-02 -5.369999411711097155e-04 6.119999784081626547e-04 1.904300000235285145e-02 5.370000587532570762e-04 6.130000596350594156e-04 1.904299999642352845e-02 -1.954999902696560096e-03 1.369998716259397263e-04 1.950500001065447186e-02 2.851563893383734066e-10 -2.223999978835789707e-03 2.118800000222149926e-02 1.956000097368019303e-03 1.360001674138796332e-04 1.950299998906731419e-02 9.997371093891902242e-07 4.997000020892209543e-03 2.083999999500309522e-02 -1.669000079469526443e-02 1.273899876826962638e-02 3.057300007940169997e-02 -2.634499887800651266e-02 -1.467300199025859189e-02 2.223000160077107535e-03 2.634600112198229663e-02 -1.467299800522668500e-02 2.220999869230402043e-03 1.669299920508326637e-02 1.274200129303551705e-02 3.057399989512936747e-02 1.724499896675057639e-02 1.297200129480237038e-02 -9.452000108147333435e-03 2.527100085578562125e-02 -1.407099812646131487e-02 -3.775600012543707529e-02 -2.526999914427330296e-02 -1.407000194888716714e-02 -3.775299984645906493e-02 -1.724500103323828651e-02 1.297199868631678139e-02 -9.449999917767517091e-03 -4.892050943641883221e-10 5.046999980546858049e-03 -1.947500000504132772e-02 2.000999876967607741e-03 1.070001305365316695e-04 -2.082300001115211172e-02 6.088285172069007701e-11 -2.205000019160450065e-03 -1.918199999779747825e-02 -2.002000123026861141e-03 1.069998277896092080e-04 -2.082199998905612942e-02 5.669998322290188773e-04 6.630000215962874362e-04 -2.131000000379201093e-02 -5.690001677654579456e-04 6.629999356813136248e-04 -2.130899999752145987e-02 8.999728570420014497e-06 2.085999980111793647e-03 -2.059200000213333437e-02 -9.000271429579935137e-06 2.085999978750449017e-03 -2.059200000203397635e-02 3.699996844357971880e-04 2.764000008706861151e-03 -1.929800000480324032e-02 -1.002353599118031558e-06 2.842199996300179970e-02 -3.696400002838454157e-02 -3.710003156508706406e-04 2.764999952662842465e-03 -1.930000000071402724e-02 -3.308800703973678681e-09 4.061499995709811489e-02 -4.295000004056936938e-02
1.297211571471268348e-08 -1.714679999992853032e-01 7.150001712753516810e-04 -5.999971687013890113e-06 -4.010000008183704800e-04 -3.649999995663313641e-04 6.120264083624551894e-10 3.100011117699596905e-05 1.113019999999690368e-01 6.000028237355819044e-06 -3.999999999108074227e-04 -3.649999996335685413e-04 -1.430000205535519441e-03 2.727999891990564359e-03 1.420000051684583084e-04 1.429999794529063142e-03 2.727000108291102905e-03 1.399999893826704895e-04 2.819999949553457139e-04 7.000020510651335270e-06 -8.180000015635914209e-04 -2.820000051959132225e-04 8.999977855186019494e-06 -8.179999984523906708e-04 2.950000220079098323e-04 -2.309999768679965300e-04 8.219999986023830913e-04 -9.999671038861992741e-07 -3.999999995971670872e-04 4.790000004050704420e-04 -2.949999779219780413e-04 -2.320000214908474060e-04 8.210000018600967188e-04 1.000032672518457955e-06 -3.949999994179380467e-04 5.070000003890363146e-04 -1.338000196369923357e-03 2.608999898978514760e-03 1.720000047794979032e-04 -2.720000084480143129e-04 5.199997861148847013e-05 -8.179999985505408914e-04 2.689999914763538890e-04 5.300001952745785110e-05 -8.180000015377816630e-04 1.340999803548918864e-03 2.610000101590975556e-03 1.709999899908062047e-04 1.996800665608215677e-06 4.203999999656117537e-02 -3.594000042003806655e-03 -3.490000934138301914e-04 2.772999994652366931e-03 2.107099999915654567e-02 -1.002221544568886094e-06 2.959300000292491156e-02 3.003999970445768268e-03 3.489999065105374898e-04 2.774000047442286634e-03 2.107099999530268747e-02 -8.000050463341953393e-06 2.110000019140750079e-03 1.976799999793652993e-02 8.999949601248545560e-06 2.109000020424467003e-03 1.976599999784368900e-02 -5.359999410419286287e-04 6.099999784797973616e-04 1.903900000234932943e-02 5.370000588178476617e-04 6.120000596330616403e-04 1.904099999642452565e-02 -1.951999902729679038e-03 1.369998718468372454e-04 1.949900001063790966e-02 -9.997150224704509953e-07 -2.221999978916414618e-03 2.118300000222502269e-02 1.953000097362499665e-03 1.360001671859899859e-04 1.950199998908387286e-02 9.997373677513775779e-07 4.993000020884218876e-03 2.083199999500709096e-02 -1.666600079360109829e-02 1.272299877006377589e-02 3.055200007928520617e-02 -2.632299887890690929e-02 -1.466000198857974300e-02 2.238000159942684936e-03 2.632300112108189663e-02 -1.465999800695119530e-02 2.235999869344373631e-03 1.666999920647443609e-02 1.272200129127404669e-02 3.055199989527630083e-02 1.721899896815995423e-02 1.295300129283098907e-02 -9.457000107984838214e-03 2.524800085494594351e-02 -1.405799812817483917e-02 -3.773000012532310571e-02 -2.525099914505390952e-02 -1.405800194742722053e-02 -3.772999984657592065e-02 -1.722100103207236180e-02 1.295599868812391878e-02 -9.457999917884011773e-03 -1.000488939564600396e-06 5.043999980478218979e-03 -1.946800000503281364e-02 1.998999877098436417e-03 1.060001303952599259e-04 -2.081300001114007314e-02 1.000060840340592583e-06 -2.204000019078826422e-03 -1.917599999780399481e-02 -1.999000123074892200e-03 1.079998280214943679e-04 -2.081699998907368676e-02 5.659998324244382715e-04 6.610000215286483509e-04 -2.130200000378449851e-02 -5.680001675700387196e-04 6.609999357649350539e-04 -2.130099999752498030e-02 9.999728841469626472e-06 2.082999980195414727e-03 -2.058400000213585906e-02 -9.000271217601012359e-06 2.083999978761436490e-03 -2.058100000203197735e-02 3.689996847013269493e-04 2.761000008638222949e-03 -1.929100000479472277e-02 -3.002351651515312711e-06 2.839799996287451639e-02 -3.694000002834953861e-02 -3.700003153632614328e-04 2.761999952749460280e-03 -1.928900000071655241e-02 9.966955096440078707e-07 4.056099995721471063e-02 -4.290900004052095040e-02
3.012950917163141862e-06 -1.711879999990624235e-01 7.110001709791067843e-04 -5.999971843794260016e-06 -3.990000008193693611e-04 -3.659999995683291393e-04 -1.999388409083507348e-06 2.800011090587023474e-05 1.111819999999830721e-01 6.000028156205706407e-06 -3.989999999118062739e-04 -3.659999996345674410e-04 -1.427000204865886725e-03 2.718999892215457053e-03 1.400000051608886313e-04 1.426999795209735493e-03 2.718000108064212456e-03 1.399999894082199577e-04 2.799999948907550798e-04 8.000020361388569711e-06 -8.160000015535505760e-04 -2.810000053306141508e-04 1.099997793381290263e-05 -8.149999984599082389e-04 2.940000221426107606e-04 -2.329999769466234081e-04 8.189999986099006594e-04 3.256599349017409059e-11 -3.959999995265311643e-04 4.740000003955550370e-04 -2.949999777872771428e-04 -2.340000214938440268e-04 8.180000018620945052e-04 2.000032423548260602e-06 -3.919999993463032725e-04 5.030000003805198093e-04 -1.336000195851551071e-03 2.601999899127777679e-03 1.700000047754503382e-04 -2.700000085070850138e-04 5.299997876574561503e-05 -8.149999985625794741e-04 2.689999914929134509e-04 5.300001953045448426e-05 -8.150000015377815901e-04 1.336999804067291004e-03 2.603000101286456931e-03 1.689999900198777363e-04 1.996806769002962051e-06 4.196199999659813024e-02 -3.557000041925894446e-03 -3.500000931720275441e-04 2.768999994565749488e-03 2.105999999916605830e-02 -1.002218469679881466e-06 2.955300000293389906e-02 3.012999970485723614e-03 3.499999066656702025e-04 2.771000047504931871e-03 2.105799999530016259e-02 -7.000050297169592642e-06 2.107000019205392850e-03 1.975699999793400705e-02 7.999949854090876528e-06 2.105000020339847094e-03 1.975699999785320710e-02 -5.359999410971270960e-04 6.099999784698084985e-04 1.902900000234932984e-02 5.360000588327594288e-04 6.110000595464436203e-04 1.902999999643104068e-02 -1.949999902860507714e-03 1.379998719881089754e-04 1.948900001062587109e-02 -9.997152454890866350e-07 -2.219999978929400493e-03 2.117000000222302863e-02 1.951000097371891626e-03 1.350001670227429416e-04 1.948999998909591372e-02 1.999737912075026348e-06 4.985000020948862284e-03 2.082099999500956061e-02 -1.663900079209178900e-02 1.270099877207782509e-02 3.052400007915814437e-02 -2.628899888027764684e-02 -1.464100198599632696e-02 2.250000159736031090e-03 2.628700111971116540e-02 -1.464099800966190031e-02 2.247999869524109490e-03 1.664099920796718521e-02 1.270000128904980215e-02 3.052099989545835335e-02 1.718799896985916120e-02 1.292900129046547532e-02 -9.478000107789749662e-03 2.521400085380926664e-02 -1.404099813071929895e-02 -3.770300012515240967e-02 -2.521599914626069736e-02 -1.404000194475219301e-02 -3.770199984678709870e-02 -1.718900103028096066e-02 1.293099869052610588e-02 -9.475999918035675831e-03 -4.881556627499195531e-10 5.033999980558844130e-03 -1.946300000502834693e-02 1.995999877114996122e-03 1.060001301713657805e-04 -2.081000001112351047e-02 1.000060641049096589e-06 -2.201000019073832189e-03 -1.917099999780699435e-02 -1.999000122890512345e-03 1.059998280274876263e-04 -2.081099998907168930e-02 5.649998323173365282e-04 6.630000214610090375e-04 -2.129400000378097249e-02 -5.680001676070299630e-04 6.619999357719272065e-04 -2.129399999752597944e-02 6.999729118039105859e-06 2.079999979977513545e-03 -2.057500000211630320e-02 -7.000270881960853273e-06 2.079999978918689943e-03 -2.057500000203902474e-02 3.699996850204075646e-04 2.757000008716849627e-03 -1.928800000479624979e-02 -1.002348639569142678e-06 2.835999996305074711e-02 -3.691500002832261845e-02 -3.700003151253309351e-04 2.758999952751458283e-03 -1.928700000071355281e-02 1.996701155385067888e-06 4.048999995734027524e-02 -4.285900004045554990e-02
-3.987080701804389597e-06 -1.707699999995928308e-01 7.100001706002152888e-04 -1.099997209276443931e-05 -3.960000012015161305e-04 -3.699999995437265208e-04 -3.999389278996236586e-06 2.600011056981749776e-05 1.109969999999961127e-01 9.000027647225597311e-06 -3.929999996949042735e-04 -3.759999996571202277e-04 -1.424000204249804922e-03 2.710999892444345815e-03 1.420000051523200946e-04 1.415999795383075192e-03 2.716000107236275080e-03 1.439999894709361361e-04 2.849999945126038066e-04 1.300002073953984374e-05 -8.160000015861441870e-04 -2.800000054007245479e-04 1.199997801044203425e-05 -8.139999984664270886e-04 2.850000217092609508e-04 -2.279999776372845191e-04 8.089999986545850499e-04 -5.999968118550949101e-06 -3.859999999673273548e-04 4.870000004186854511e-04 -2.939999776084173161e-04 -2.360000214132193866e-04 8.230000018585722707e-04 3.000031964246856723e-06 -3.859999992716719075e-04 5.020000003690067505e-04 -1.336000195462360221e-03 2.596999899129775417e-03 1.720000047804447099e-04 -2.640000082581148611e-04 4.999997922352268241e-05 -8.109999985927019827e-04 2.629999915094730295e-04 5.300001907966956705e-05 -8.120000015046625018e-04 1.334999804629821880e-03 2.596000101141189391e-03 1.749999900379096008e-04 -3.003184353586585341e-06 4.184899999627991057e-02 -3.497000041785422019e-03 -3.490000932382658215e-04 2.768999994629393457e-03 2.104799999916054029e-02 2.997786243123220936e-06 2.949200000325440107e-02 3.030999970524575135e-03 3.509999074479243169e-04 2.760000047571571982e-03 2.104899999530562837e-02 -1.300004989306672807e-05 2.101000018742621607e-03 1.974799999797311953e-02 1.299994990212184548e-05 2.104000020713003762e-03 1.975199999782660532e-02 -5.339999409513864230e-04 6.079999786200701974e-04 1.902800000234028399e-02 5.320000590966415636e-04 6.070000592369304742e-04 1.902299999645712045e-02 -1.943999902532035293e-03 1.329998724329006809e-04 1.948000001059774916e-02 2.000284191979968493e-06 -2.212999978708502478e-03 2.116400000219947203e-02 1.944000097117401342e-03 1.380001664883367279e-04 1.948499998913155382e-02 -3.000260846369422778e-06 4.968000020562719256e-03 2.081299999505414194e-02 -1.659500079023909155e-02 1.267299877535761100e-02 3.047600007894324045e-02 -2.623499888215571896e-02 -1.461500198189631151e-02 2.266000159411988169e-03 2.624100111777953950e-02 -1.461399801312091365e-02 2.267999869751053006e-03 1.658999920980496964e-02 1.267300128515570085e-02 3.048399989576683691e-02 1.713599897183493842e-02 1.290200128652071662e-02 -9.490000107475747224e-03 2.516800085157842176e-02 -1.400799813415034428e-02 -3.765500012493146198e-02 -2.516699914829776882e-02 -1.401000194100435713e-02 -3.765999984708753856e-02 -1.713700102796567037e-02 1.289899869443990148e-02 -9.494999918290744287e-03 -4.872685313617544384e-10 5.022999980568832942e-03 -1.945300000501735960e-02 1.992999876749532422e-03 1.120001299604570129e-04 -2.079400001111294735e-02 -2.999939768573594738e-06 -2.195000019368362285e-03 -1.916299999779090546e-02 -1.990000122645414239e-03 1.039998287251408572e-04 -2.079399998911937025e-02 5.739998326270251113e-04 6.600000221566645203e-04 -2.127900000382765625e-02 -5.660001673028611149e-04 6.589999359371719045e-04 -2.127999999753402149e-02 7.999729540349234059e-06 2.074999980061134792e-03 -2.056700000211682602e-02 -1.600027028079090147e-05 2.072999978251003489e-03 -2.056200000198235220e-02 3.709996854112462632e-04 2.753000008808461577e-03 -1.927200000479777423e-02 -2.343707619533670841e-09 2.829799996317032551e-02 -3.687100002826620981e-02 -3.680003143839402136e-04 2.749999952913705775e-03 -1.927600000071560613e-02 -4.003290321628624022e-06 4.038299995696441325e-02 -4.278100004031554909e-02
1.201287605976761289e-05 -1.701979999983787295e-01 7.140001699405402720e-04 1.000027907235524995e-06 -3.960000002939530433e-04 -3.699999996099647684e-04 -8.999391191667314253e-06 3.100010991397841935e-05 1.107190000000187052e-01 6.000027815045687199e-06 -3.949999999187984133e-04 -3.729999996385629504e-04 -1.423000203591212034e-03 2.701999892515980460e-03 1.380000051557900948e-04 1.411999796111778650e-03 2.706000106928759755e-03 1.389999895030043025e-04 2.819999958314373394e-04 -3.999979481357617553e-06 -8.100000015526037048e-04 -2.890000053620855902e-04 1.199997733676185387e-05 -8.069999984167482328e-04 2.960000212554793494e-04 -2.219999768053516789e-04 8.089999985878734397e-04 8.000031426019746801e-06 -3.809999989224881049e-04 4.730000003364130852e-04 -3.019999775344348069e-04 -2.380000220322457227e-04 8.090000019047290190e-04 7.000031661725814352e-06 -3.819999989691509439e-04 5.020000003429317967e-04 -1.318000194634299507e-03 2.586999900504105294e-03 1.850000046910760840e-04 -2.780000085882350846e-04 5.399997815970467187e-05 -8.159999985194194699e-04 2.689999910297398975e-04 6.000001954244098376e-05 -8.030000015447737519e-04 1.328999804784954586e-03 2.593000100674422610e-03 1.619999900740253602e-04 1.996826864489688091e-06 4.170599999673098995e-02 -3.424000041670182022e-03 -3.490000922197288957e-04 2.753999994608416491e-03 2.102699999917552465e-02 -4.002208243612226019e-06 2.942100000275096189e-02 3.056999970634134613e-03 3.509999076179688509e-04 2.756000047547599308e-03 2.102499999530962546e-02 -1.000004999794399108e-05 2.101000018950533420e-03 1.972899999795655820e-02 4.999950407806532678e-06 2.096000020089982402e-03 1.973399999787875739e-02 -5.299999411594931865e-04 6.089999788986181313e-04 1.900400000231720898e-02 5.320000584954716252e-04 6.140000592239449381e-04 1.900999999645012692e-02 -1.941999903430206321e-03 1.439998725721746320e-04 1.946800001057572005e-02 -8.999716178427014318e-06 -2.209999979566406540e-03 2.113800000225719497e-02 1.948000097071594982e-03 1.370001667688824725e-04 1.946299998911047574e-02 2.999739589204822504e-06 4.961000020999520831e-03 2.079599999502801388e-02 -1.653300078718183269e-02 1.262899877999774066e-02 3.042700007864495779e-02 -2.617499888455603052e-02 -1.458100197732753282e-02 2.297000159046835160e-03 2.617000111488680669e-02 -1.457399801846668945e-02 2.291999870103008166e-03 1.654099921309299184e-02 1.262500128138788896e-02 3.042199989608525626e-02 1.707799897519084523e-02 1.285500128209820202e-02 -9.526000107108648085e-03 2.510800084947675467e-02 -1.397699813864420985e-02 -3.761100012463123449e-02 -2.510899915061363952e-02 -1.397500193655787024e-02 -3.759999984744265278e-02 -1.707800102499178879e-02 1.285799869887911326e-02 -9.517999918575461432e-03 4.999514197690514695e-06 5.004999980965963401e-03 -1.943400000502697525e-02 1.986999877756452735e-03 1.000001295246553018e-04 -2.077600001106784042e-02 5.000060552154697695e-06 -2.198000018746339417e-03 -1.914599999783206732e-02 -1.996000122400316389e-03 1.019998282883402291e-04 -2.077699998908425286e-02 5.569998320181109540e-04 6.690000208839355297e-04 -2.126600000374280833e-02 -5.720001674083151008e-04 6.619999355053656940e-04 -2.125799999750389857e-02 1.299972981304655448e-05 2.072999980461261941e-03 -2.054500000214242936e-02 -2.000270284663081030e-06 2.073999979322812062e-03 -2.054900000206063074e-02 3.669996867891504129e-04 2.735000008508937930e-03 -1.926900000475771646e-02 9.976613921501566226e-07 2.823399996329290298e-02 -3.682400002820779977e-02 -3.700003141498818841e-04 2.747999952777428669e-03 -1.926100000070256682e-02 5.996720899743071735e-06 4.024199995782160033e-02 -4.268000004022991234e-02
