9.308177580000000617e+00 0.000000000000000000e+00 0.000000000000000000e+00 0.000000000000000000e+00 1.612852750427972737e+01 -7.246612976687479367e-17 0.000000000000000000e+00 6.046895623163528466e-01 2.164471856650510873e+01
9.308177580000000617e+00 0.000000000000000000e+00 0.000000000000000000e+00 0.000000000000000000e+00 1.612852750427972737e+01 -7.246612976687479367e-17 0.000000000000000000e+00 6.046895623163528466e-01 2.164471856650510873e+01
9.308177580000000617e+00 0.000000000000000000e+00 0.000000000000000000e+00 0.000000000000000000e+00 1.612852750427972737e+01 -7.246612976687479367e-17 0.000000000000000000e+00 6.046895623163528466e-01 2.164471856650510873e+01
9.308177580000000617e+00 0.000000000000000000e+00 0.000000000000000000e+00 0.000000000000000000e+00 1.612852750427972737e+01 -7.246612976687479367e-17 0.000000000000000000e+00 6.046895623163528466e-01 2.164471856650510873e+01
9.308177580000000617e+00 0.000000000000000000e+00 0.000000000000000000e+00 0.000000000000000000e+00 1.612852750427972737e+01 -7.246612976687479367e-17 0.000000000000000000e+00 6.046895623163528466e-01 2.164471856650510873e+01
