1.299999999999999886e-04 1.623671445123988377e+01 4.872921518083174419e+00 1.551490000000000036e+00 2.796262250271996042e+00 4.872911641493593571e+00 1.299999999999999886e-04 3.676608860994819761e+00 2.313778857054920923e+00 1.551490000000000036e+00 9.885101446597992503e-01 2.313767109046340753e+00 3.102850000000000108e+00 1.623671445123988377e+01 4.872921518083174419e+00 4.654219999999999580e+00 2.796262250271996042e+00 4.872911641493593571e+00 3.102850000000000108e+00 3.676608860994819761e+00 2.313778857054920923e+00 4.654219999999999580e+00 9.885101446597992503e-01 2.313767109046340753e+00 6.205580000000000318e+00 1.623671445123988377e+01 4.872921518083174419e+00 7.756940000000000168e+00 2.796262250271996042e+00 4.872911641493593571e+00 6.205580000000000318e+00 3.676608860994819761e+00 2.313778857054920923e+00 7.756940000000000168e+00 9.885101446597992503e-01 2.313767109046340753e+00 1.299999999999999886e-04 5.484360966607016330e+00 4.872923389502174629e+00 1.551490000000000036e+00 8.172439132219194491e+00 4.872915703834038936e+00 1.299999999999999886e-04 9.052785463680487865e+00 2.313772923295476680e+00 1.551490000000000036e+00 6.364687026606997478e+00 2.313771171386786563e+00 3.102850000000000108e+00 5.484360966607016330e+00 4.872923389502174629e+00 4.654219999999999580e+00 8.172439132219194491e+00 4.872915703834038936e+00 3.102850000000000108e+00 9.052785463680487865e+00 2.313772923295476680e+00 4.654219999999999580e+00 6.364687026606997478e+00 2.313771171386786563e+00 6.205580000000000318e+00 5.484360966607016330e+00 4.872923389502174629e+00 7.756940000000000168e+00 8.172439132219194491e+00 4.872915703834038936e+00 6.205580000000000318e+00 9.052785463680487865e+00 2.313772923295476680e+00 7.756940000000000168e+00 6.364687026606997478e+00 2.313771171386786563e+00 1.299999999999999886e-04 1.086053756929268310e+01 4.872917455742729942e+00 1.551490000000000036e+00 1.354861573490486215e+01 4.872909770074595137e+00 1.299999999999999886e-04 1.442896234562768498e+01 2.313776985635921601e+00 1.551490000000000036e+00 1.174086390855419637e+01 2.313775233727231484e+00 3.102850000000000108e+00 1.086053756929268310e+01 4.872917455742729942e+00 4.654219999999999580e+00 1.354861573490486215e+01 4.872909770074595137e+00 3.102850000000000108e+00 1.442896234562768498e+01 2.313776985635921601e+00 4.654219999999999580e+00 1.174086390855419637e+01 2.313775233727231484e+00 6.205580000000000318e+00 1.086053756929268310e+01 4.872917455742729942e+00 7.756940000000000168e+00 1.354861573490486215e+01 4.872909770074595137e+00 6.205580000000000318e+00 1.442896234562768498e+01 2.313776985635921601e+00 7.756940000000000168e+00 1.174086390855419637e+01 2.313775233727231484e+00 1.299999999999999886e-04 1.643827760572580843e+01 1.208782652737842511e+01 1.551490000000000036e+00 2.997825404757919365e+00 1.208781665078884338e+01 1.299999999999999886e-04 3.878172015480743529e+00 9.528683866350169396e+00 1.551490000000000036e+00 1.190073578407254695e+00 9.528682114441478390e+00 3.102850000000000108e+00 1.643827760572580843e+01 1.208782652737842511e+01 4.654219999999999580e+00 2.997825404757919365e+00 1.208781665078884338e+01 3.102850000000000108e+00 3.878172015480743529e+00 9.528683866350169396e+00 4.654219999999999580e+00 1.190073578407254695e+00 9.528682114441478390e+00 6.205580000000000318e+00 1.643827760572580843e+01 1.208782652737842511e+01 7.756940000000000168e+00 2.997825404757919365e+00 1.208781665078884338e+01 6.205580000000000318e+00 3.878172015480743529e+00 9.528683866350169396e+00 7.756940000000000168e+00 1.190073578407254695e+00 9.528682114441478390e+00 1.299999999999999886e-04 5.685924121092940098e+00 1.208782839879742355e+01 1.551490000000000036e+00 8.374002286705117371e+00 1.208782071312928785e+01 1.299999999999999886e-04 9.254348897427943754e+00 9.528687928690615649e+00 1.551490000000000036e+00 6.566250181092921245e+00 9.528676180682035479e+00 3.102850000000000108e+00 5.685924121092940098e+00 1.208782839879742355e+01 4.654219999999999580e+00 8.374002286705117371e+00 1.208782071312928785e+01 3.102850000000000108e+00 9.254348897427943754e+00 9.528687928690615649e+00 4.654219999999999580e+00 6.566250181092921245e+00 9.528676180682035479e+00 6.205580000000000318e+00 5.685924121092940098e+00 1.208782839879742355e+01 7.756940000000000168e+00 8.374002286705117371e+00 1.208782071312928785e+01 6.205580000000000318e+00 9.254348897427943754e+00 9.528687928690615649e+00 7.756940000000000168e+00 6.566250181092921245e+00 9.528676180682035479e+00 1.299999999999999886e-04 1.106210072377860598e+01 1.208782246503797886e+01 1.551490000000000036e+00 1.375017888939078503e+01 1.208781477936984494e+01 1.299999999999999886e-04 1.463052550011360786e+01 9.528681994931170962e+00 1.551490000000000036e+00 1.194242706304011925e+01 9.528680243022481733e+00 3.102850000000000108e+00 1.106210072377860598e+01 1.208782246503797886e+01 4.654219999999999580e+00 1.375017888939078503e+01 1.208781477936984494e+01 3.102850000000000108e+00 1.463052550011360786e+01 9.528681994931170962e+00 4.654219999999999580e+00 1.194242706304011925e+01 9.528680243022481733e+00 6.205580000000000318e+00 1.106210072377860598e+01 1.208782246503797886e+01 7.756940000000000168e+00 1.375017888939078503e+01 1.208781477936984494e+01 6.205580000000000318e+00 1.463052550011360786e+01 9.528681994931170962e+00 7.756940000000000168e+00 1.194242706304011925e+01 9.528680243022481733e+00 1.299999999999999886e-04 1.663984076021172953e+01 1.930273153667367225e+01 1.551490000000000036e+00 3.199388559243843133e+00 1.930272166008409584e+01 1.299999999999999886e-04 4.079735169966666852e+00 1.674358887564541831e+01 1.551490000000000036e+00 1.391636732893178241e+00 1.674358712373672731e+01 3.102850000000000108e+00 1.663984076021172953e+01 1.930273153667367225e+01 4.654219999999999580e+00 3.199388559243843133e+00 1.930272166008409584e+01 3.102850000000000108e+00 4.079735169966666852e+00 1.674358887564541831e+01 4.654219999999999580e+00 1.391636732893178241e+00 1.674358712373672731e+01 6.205580000000000318e+00 1.663984076021172953e+01 1.930273153667367225e+01 7.756940000000000168e+00 3.199388559243843133e+00 1.930272166008409584e+01 6.205580000000000318e+00 4.079735169966666852e+00 1.674358887564541831e+01 7.756940000000000168e+00 1.391636732893178241e+00 1.674358712373672731e+01 1.299999999999999886e-04 5.887487275578863866e+00 1.930273340809267424e+01 1.551490000000000036e+00 8.575565441191042027e+00 1.930272572242454032e+01 1.299999999999999886e-04 9.455912051913866634e+00 1.674359293798586634e+01 1.551490000000000036e+00 6.767813335578845013e+00 1.674358118997728440e+01 3.102850000000000108e+00 5.887487275578863866e+00 1.930273340809267424e+01 4.654219999999999580e+00 8.575565441191042027e+00 1.930272572242454032e+01 3.102850000000000108e+00 9.455912051913866634e+00 1.674359293798586634e+01 4.654219999999999580e+00 6.767813335578845013e+00 1.674358118997728440e+01 6.205580000000000318e+00 5.887487275578863866e+00 1.930273340809267424e+01 7.756940000000000168e+00 8.575565441191042027e+00 1.930272572242454032e+01 6.205580000000000318e+00 9.455912051913866634e+00 1.674359293798586634e+01 7.756940000000000168e+00 6.767813335578845013e+00 1.674358118997728440e+01 1.299999999999999886e-04 1.126366387826453064e+01 1.930272747433322778e+01 1.551490000000000036e+00 1.395174232313824092e+01 1.930272978476498125e+01 1.299999999999999886e-04 1.483208865459953252e+01 1.674358700422641988e+01 1.551490000000000036e+00 1.214399021752604391e+01 1.674358525231772887e+01 3.102850000000000108e+00 1.126366387826453064e+01 1.930272747433322778e+01 4.654219999999999580e+00 1.395174232313824092e+01 1.930272978476498125e+01 3.102850000000000108e+00 1.483208865459953252e+01 1.674358700422641988e+01 4.654219999999999580e+00 1.214399021752604391e+01 1.674358525231772887e+01 6.205580000000000318e+00 1.126366387826453064e+01 1.930272747433322778e+01 7.756940000000000168e+00 1.395174232313824092e+01 1.930272978476498125e+01 6.205580000000000318e+00 1.483208865459953252e+01 1.674358700422641988e+01 7.756940000000000168e+00 1.214399021752604391e+01 1.674358525231772887e+01 1.299999999999999886e-04 1.892436317596110085e+00 3.593342977012252248e+00 1.200000000000000030e-04 3.695909822002103162e+00 5.922347237078250615e+00 1.551490000000000036e+00 2.776960730741648398e+00 1.264323269270486216e+00 1.200000000000000030e-04 8.887201050651724610e-02 1.264311242000374369e+00 1.551500000000000101e+00 4.580524479308177632e+00 3.593335012082585322e+00 1.551490000000000036e+00 1.007831656389925223e+00 5.922354922746385419e+00 3.102860000000000174e+00 1.892436317596110085e+00 3.593342977012252248e+00 3.102850000000000108e+00 3.695909822002103162e+00 5.922347237078250615e+00 4.654209999999999958e+00 2.776960730741648398e+00 1.264323269270486216e+00 3.102850000000000108e+00 8.887201050651724610e-02 1.264311242000374369e+00 4.654219999999999580e+00 4.580524479308177632e+00 3.593335012082585322e+00 4.654209999999999958e+00 1.007831656389925223e+00 5.922354922746385419e+00 6.205589999999999939e+00 1.892436317596110085e+00 3.593342977012252248e+00 6.205580000000000318e+00 3.695909822002103162e+00 5.922347237078250615e+00 7.756940000000000168e+00 2.776960730741648398e+00 1.264323269270486216e+00 6.205580000000000318e+00 8.887201050651724610e-02 1.264311242000374369e+00 7.756949999999999790e+00 4.580524479308177632e+00 3.593335012082585322e+00 7.756940000000000168e+00 1.007831656389925223e+00 5.922354922746385419e+00 1.299999999999999886e-04 7.268602924181887914e+00 3.593337322514339682e+00 1.200000000000000030e-04 9.072086703949301167e+00 5.922351299418695980e+00 1.551490000000000036e+00 8.153137333427313393e+00 1.264317335511041973e+00 1.200000000000000030e-04 5.465048892453715723e+00 1.264315304340819512e+00 1.551500000000000101e+00 9.956701081993843516e+00 3.593329078323141079e+00 1.551490000000000036e+00 6.384008538337123895e+00 5.922358985086829897e+00 3.102860000000000174e+00 7.268602924181887914e+00 3.593337322514339682e+00 3.102850000000000108e+00 9.072086703949301167e+00 5.922351299418695980e+00 4.654209999999999958e+00 8.153137333427313393e+00 1.264317335511041973e+00 3.102850000000000108e+00 5.465048892453715723e+00 1.264315304340819512e+00 4.654219999999999580e+00 9.956701081993843516e+00 3.593329078323141079e+00 4.654209999999999958e+00 6.384008538337123895e+00 5.922358985086829897e+00 6.205589999999999939e+00 7.268602924181887914e+00 3.593337322514339682e+00 6.205580000000000318e+00 9.072086703949301167e+00 5.922351299418695980e+00 7.756940000000000168e+00 8.153137333427313393e+00 1.264317335511041973e+00 6.205580000000000318e+00 5.465048892453715723e+00 1.264315304340819512e+00 7.756949999999999790e+00 9.956701081993843516e+00 3.593329078323141079e+00 7.756940000000000168e+00 6.384008538337123895e+00 5.922358985086829897e+00 1.299999999999999886e-04 1.264477980612908681e+01 3.593341384854784604e+00 1.200000000000000030e-04 1.444826358589650184e+01 5.922355361759140457e+00 1.551490000000000036e+00 1.352931421537451406e+01 1.264321397851487117e+00 1.200000000000000030e-04 1.084122549513938338e+01 1.264309370581375269e+00 1.551500000000000101e+00 1.533287796394104241e+01 3.593333140663586445e+00 1.551490000000000036e+00 1.176017514492290061e+01 5.922353330588917331e+00 3.102860000000000174e+00 1.264477980612908681e+01 3.593341384854784604e+00 3.102850000000000108e+00 1.444826358589650184e+01 5.922355361759140457e+00 4.654209999999999958e+00 1.352931421537451406e+01 1.264321397851487117e+00 3.102850000000000108e+00 1.084122549513938338e+01 1.264309370581375269e+00 4.654219999999999580e+00 1.533287796394104241e+01 3.593333140663586445e+00 4.654209999999999958e+00 1.176017514492290061e+01 5.922353330588917331e+00 6.205589999999999939e+00 1.264477980612908681e+01 3.593341384854784604e+00 6.205580000000000318e+00 1.444826358589650184e+01 5.922355361759140457e+00 7.756940000000000168e+00 1.352931421537451406e+01 1.264321397851487117e+00 6.205580000000000318e+00 1.084122549513938338e+01 1.264309370581375269e+00 7.756949999999999790e+00 1.533287796394104241e+01 3.593333140663586445e+00 7.756940000000000168e+00 1.176017514492290061e+01 5.922353330588917331e+00 1.299999999999999886e-04 2.093999472082033630e+00 1.080824798630750117e+01 1.200000000000000030e-04 3.897473255749558607e+00 1.313726224247338870e+01 1.551490000000000036e+00 2.978523885227572165e+00 8.479228278565736687e+00 1.200000000000000030e-04 2.904351649924407086e-01 8.479216251295623508e+00 1.551500000000000101e+00 4.782087633794101400e+00 1.080824002137783424e+01 1.551490000000000036e+00 1.209394810875848769e+00 1.313725993204163522e+01 3.102860000000000174e+00 2.093999472082033630e+00 1.080824798630750117e+01 3.102850000000000108e+00 3.897473255749558607e+00 1.313726224247338870e+01 4.654209999999999958e+00 2.978523885227572165e+00 8.479228278565736687e+00 3.102850000000000108e+00 2.904351649924407086e-01 8.479216251295623508e+00 4.654219999999999580e+00 4.782087633794101400e+00 1.080824002137783424e+01 4.654209999999999958e+00 1.209394810875848769e+00 1.313725993204163522e+01 6.205589999999999939e+00 2.093999472082033630e+00 1.080824798630750117e+01 6.205580000000000318e+00 3.897473255749558607e+00 1.313726224247338870e+01 7.756940000000000168e+00 2.978523885227572165e+00 8.479228278565736687e+00 6.205580000000000318e+00 2.904351649924407086e-01 8.479216251295623508e+00 7.756949999999999790e+00 4.782087633794101400e+00 1.080824002137783424e+01 7.756940000000000168e+00 1.209394810875848769e+00 1.313725993204163522e+01 1.299999999999999886e-04 7.470166078667810794e+00 1.080824233180958949e+01 1.200000000000000030e-04 9.273649858435224047e+00 1.313725630871394401e+01 1.551490000000000036e+00 8.354700767174769283e+00 8.479232340906179388e+00 1.200000000000000030e-04 5.666612046939638603e+00 8.479220313636067985e+00 1.551500000000000101e+00 1.015826423647976817e+01 1.080823408761838955e+01 1.551490000000000036e+00 6.585571692823047663e+00 1.313726399438207970e+01 3.102860000000000174e+00 7.470166078667810794e+00 1.080824233180958949e+01 3.102850000000000108e+00 9.273649858435224047e+00 1.313725630871394401e+01 4.654209999999999958e+00 8.354700767174769283e+00 8.479232340906179388e+00 3.102850000000000108e+00 5.666612046939638603e+00 8.479220313636067985e+00 4.654219999999999580e+00 1.015826423647976817e+01 1.080823408761838955e+01 4.654209999999999958e+00 6.585571692823047663e+00 1.313726399438207970e+01 6.205589999999999939e+00 7.470166078667810794e+00 1.080824233180958949e+01 6.205580000000000318e+00 9.273649858435224047e+00 1.313725630871394401e+01 7.756940000000000168e+00 8.354700767174769283e+00 8.479232340906179388e+00 6.205580000000000318e+00 5.666612046939638603e+00 8.479220313636067985e+00 7.756949999999999790e+00 1.015826423647976817e+01 1.080823408761838955e+01 7.756940000000000168e+00 6.585571692823047663e+00 1.313726399438207970e+01 1.299999999999999886e-04 1.284634296061500969e+01 1.080824639415003396e+01 1.200000000000000030e-04 1.464982674038242472e+01 1.313726037105439026e+01 1.551490000000000036e+00 1.373087736986043694e+01 8.479226407146736477e+00 1.200000000000000030e-04 1.104278864962530626e+01 8.479214379876625074e+00 1.551500000000000101e+00 1.553444111842696707e+01 1.080823814995883581e+01 1.551490000000000036e+00 1.196173857867035650e+01 1.313726833598405541e+01 3.102860000000000174e+00 1.284634296061500969e+01 1.080824639415003396e+01 3.102850000000000108e+00 1.464982674038242472e+01 1.313726037105439026e+01 4.654209999999999958e+00 1.373087736986043694e+01 8.479226407146736477e+00 3.102850000000000108e+00 1.104278864962530626e+01 8.479214379876625074e+00 4.654219999999999580e+00 1.553444111842696707e+01 1.080823814995883581e+01 4.654209999999999958e+00 1.196173857867035650e+01 1.313726833598405541e+01 6.205589999999999939e+00 1.284634296061500969e+01 1.080824639415003396e+01 6.205580000000000318e+00 1.464982674038242472e+01 1.313726037105439026e+01 7.756940000000000168e+00 1.373087736986043694e+01 8.479226407146736477e+00 6.205580000000000318e+00 1.104278864962530626e+01 8.479214379876625074e+00 7.756949999999999790e+00 1.553444111842696707e+01 1.080823814995883581e+01 7.756940000000000168e+00 1.196173857867035650e+01 1.313726833598405541e+01 1.299999999999999886e-04 2.295562626567956954e+00 1.802315299560275008e+01 1.200000000000000030e-04 4.099036410235481931e+00 2.035216725176863761e+01 1.551490000000000036e+00 3.180087039713495489e+00 1.569413328786098560e+01 1.200000000000000030e-04 4.919983194783642544e-01 1.569412126059087242e+01 1.551500000000000101e+00 4.983650788280024280e+00 1.802314503067308493e+01 1.551490000000000036e+00 1.410958244623304214e+00 2.035217493743677153e+01 3.102860000000000174e+00 2.295562626567956954e+00 1.802315299560275008e+01 3.102850000000000108e+00 4.099036410235481931e+00 2.035216725176863761e+01 4.654209999999999958e+00 3.180087039713495489e+00 1.569413328786098560e+01 3.102850000000000108e+00 4.919983194783642544e-01 1.569412126059087242e+01 4.654219999999999580e+00 4.983650788280024280e+00 1.802314503067308493e+01 4.654209999999999958e+00 1.410958244623304214e+00 2.035217493743677153e+01 6.205589999999999939e+00 2.295562626567956954e+00 1.802315299560275008e+01 6.205580000000000318e+00 4.099036410235481931e+00 2.035216725176863761e+01 7.756940000000000168e+00 3.180087039713495489e+00 1.569413328786098560e+01 6.205580000000000318e+00 4.919983194783642544e-01 1.569412126059087242e+01 7.756949999999999790e+00 4.983650788280024280e+00 1.802314503067308493e+01 7.756940000000000168e+00 1.410958244623304214e+00 2.035217493743677153e+01 1.299999999999999886e-04 7.671729512415266683e+00 1.802315733720472934e+01 1.200000000000000030e-04 9.475213012921148703e+00 2.035216131800919470e+01 1.551490000000000036e+00 8.556263921660692162e+00 1.569413735020143008e+01 1.200000000000000030e-04 5.868175201425562371e+00 1.569412532293131868e+01 1.551500000000000101e+00 1.035982739096569105e+01 1.802313909691364202e+01 1.551490000000000036e+00 6.787134847308971430e+00 2.035216900367732862e+01 3.102860000000000174e+00 7.671729512415266683e+00 1.802315733720472934e+01 3.102850000000000108e+00 9.475213012921148703e+00 2.035216131800919470e+01 4.654209999999999958e+00 8.556263921660692162e+00 1.569413735020143008e+01 3.102850000000000108e+00 5.868175201425562371e+00 1.569412532293131868e+01 4.654219999999999580e+00 1.035982739096569105e+01 1.802313909691364202e+01 4.654209999999999958e+00 6.787134847308971430e+00 2.035216900367732862e+01 6.205589999999999939e+00 7.671729512415266683e+00 1.802315733720472934e+01 6.205580000000000318e+00 9.475213012921148703e+00 2.035216131800919470e+01 7.756940000000000168e+00 8.556263921660692162e+00 1.569413735020143008e+01 6.205580000000000318e+00 5.868175201425562371e+00 1.569412532293131868e+01 7.756949999999999790e+00 1.035982739096569105e+01 1.802313909691364202e+01 7.756940000000000168e+00 6.787134847308971430e+00 2.035216900367732862e+01 1.299999999999999886e-04 1.304790611510093434e+01 1.802315140344528643e+01 1.200000000000000030e-04 1.485138989486834937e+01 2.035216538034963918e+01 1.551490000000000036e+00 1.393244052434636160e+01 1.569413141644198362e+01 1.200000000000000030e-04 1.124435180411122914e+01 1.569411938917187221e+01 1.551500000000000101e+00 1.573600427291288995e+01 1.802314315925408295e+01 1.551490000000000036e+00 1.216330173315627938e+01 2.035217334527930788e+01 3.102860000000000174e+00 1.304790611510093434e+01 1.802315140344528643e+01 3.102850000000000108e+00 1.485138989486834937e+01 2.035216538034963918e+01 4.654209999999999958e+00 1.393244052434636160e+01 1.569413141644198362e+01 3.102850000000000108e+00 1.124435180411122914e+01 1.569411938917187221e+01 4.654219999999999580e+00 1.573600427291288995e+01 1.802314315925408295e+01 4.654209999999999958e+00 1.216330173315627938e+01 2.035217334527930788e+01 6.205589999999999939e+00 1.304790611510093434e+01 1.802315140344528643e+01 6.205580000000000318e+00 1.485138989486834937e+01 2.035216538034963918e+01 7.756940000000000168e+00 1.393244052434636160e+01 1.569413141644198362e+01 6.205580000000000318e+00 1.124435180411122914e+01 1.569411938917187221e+01 7.756949999999999790e+00 1.573600427291288995e+01 1.802314315925408295e+01 7.756940000000000168e+00 1.216330173315627938e+01 2.035217334527930788e+01