-2.825353028569999879e+03
-2.825317795450000176e+03
-2.825212279140000192e+03
-2.825037138799999866e+03
-2.824793650629999775e+03
