3.199999999999999855e-05 -9.887553631023290900e-05 -8.535716890334189887e-04 -5.940000000000000184e-04 1.316671106918161768e-03 7.726057343110497033e-05 -1.210000000000000002e-04 9.657681400652836582e-05 -1.377234155471156098e-03 4.470000000000000232e-04 -1.074573543615876814e-03 4.241741380150575343e-04 2.249999999999999938e-04 9.684608650569778536e-04 -1.214519062367112618e-03 -5.500000000000000196e-05 1.767125588627802024e-04 -1.559957420578153412e-04 1.245000000000000013e-03 -6.728771533154699136e-04 1.379625115999931583e-05 6.000000000000000152e-05 -5.676911581612419664e-04 -4.823346856131621166e-04 -2.320000000000000014e-04 9.264772455219444499e-04 -1.213346163932647317e-03 5.910000000000000539e-04 1.419719714285385889e-03 -6.567292341157232203e-05 -1.067000000000000023e-03 -7.611836777059990868e-04 -3.175545298007492132e-05 -4.620000000000000083e-04 -9.715471308755275516e-04 3.162549169381095589e-04 -1.039999999999999936e-04 1.230241366318463384e-03 1.346966243039567697e-04 -2.000000000000000096e-04 1.266470003858682046e-03 -6.096053882030492846e-04 5.500000000000000196e-05 -4.594188971884639958e-04 -8.020147695732048130e-05 9.799999999999999684e-05 3.194620356856997957e-04 1.208336689622077785e-05 2.689999999999999791e-04 6.435276180801923537e-04 5.112281337798557559e-04 -6.600000000000000506e-05 9.715118899380119171e-05 -2.107952714770678260e-04 -5.450000000000000200e-04 -8.452367693698398330e-04 8.269267220892285433e-04 -1.000000000000000048e-04 -6.355699877301220440e-06 -1.558833059665776742e-04 -2.010000000000000068e-04 7.014885343375470853e-04 5.806365784145536011e-04 2.809999999999999998e-04 1.141044010638084943e-03 -6.231079888646542464e-04 4.629999999999999784e-04 -8.730804867675276892e-04 8.687205900781776353e-04 3.699999999999999811e-05 2.830127945324694598e-04 6.812311010899487732e-05 -5.099999999999999960e-05 -1.842640832798530756e-04 -1.859267264624302998e-04 -2.000000000000000096e-04 3.881715950119272963e-04 -2.499376178687320242e-04 -7.499999999999999343e-05 -1.741742048351644582e-04 -4.693190240870682745e-04 -1.075000000000000001e-03 -1.153557540641146158e-05 4.464962827393336841e-04 6.179999999999999513e-04 1.049450857609824685e-03 -3.432051080627897868e-05 0.000000000000000000e+00 9.193876600009067085e-04 -5.718980071988861730e-04 -7.899999999999999579e-05 1.158480541508951999e-04 -1.502938067568030376e-04 -3.300000000000000253e-05 7.559084403635061991e-04 -8.374362243103719225e-04 -6.239999999999999887e-04 1.059340984412638622e-03 -2.584326539353324335e-06 1.589999999999999888e-04 3.384982832506761800e-04 -2.375456003304312843e-04 1.350000000000000017e-04 1.167302280006917472e-04 -1.903340586203806960e-04 1.231000000000000106e-03 2.753872414776500278e-05 4.844198784859198438e-04 2.900000000000000017e-05 3.825133174862336075e-04 -5.599004928964394865e-04 -5.389999999999999826e-04 1.531287261335947340e-03 4.544142639379343237e-04 1.500000000000000038e-05 2.230525379961312380e-04 -1.397774146739552649e-03 5.599999999999999509e-04 -7.537675154854701952e-04 -1.695678621854534076e-05 1.569999999999999944e-04 1.632532011496599152e-03 -1.078010775196087132e-03 9.000000000000000228e-06 4.784236815092065003e-04 3.307684703401721931e-04 1.219999999999999947e-03 -5.416719093390138899e-04 -1.239215180387452913e-04 -9.399999999999999448e-05 -2.207835657058654019e-04 -9.201932498742879584e-04 -1.600000000000000131e-04 1.539730839397482299e-03 -9.263600499850611078e-04 4.870000000000000197e-04 1.662264096038895689e-03 4.517555478574600009e-04 -1.182000000000000108e-03 -4.381535574152583645e-04 -1.068057120399181479e-04 -4.350000000000000026e-04 -6.854417278208751411e-04 1.011812124948773044e-04 -8.299999999999999815e-05 7.878380335686733550e-04 1.900612697648058325e-05 -2.719999999999999979e-04 1.328004004768972793e-03 -7.703865025541207882e-04 -1.099999999999999971e-05 -4.116081005527895582e-04 -8.038188673820269694e-04 1.740000000000000010e-04 3.495383823826491310e-04 -3.078813395471069318e-04 2.880000000000000073e-04 1.489211566804631384e-04 3.889929165074255675e-04 1.330000000000000073e-04 1.905445418364771451e-04 -3.054403011659185142e-04 -4.939999999999999730e-04 -8.345569046168862517e-04 6.333066363367407441e-05 1.500000000000000038e-05 2.517207530769751580e-05 -6.029381117699423882e-04 -2.429999999999999977e-04 1.996671253160265151e-04 4.866138500577580142e-04 1.430000000000000064e-04 1.343512288413194417e-03 -6.807846435420982249e-04 4.670000000000000214e-04 -9.965603067040680260e-04 1.728975277495137762e-04 -1.559999999999999972e-04 3.757738459472999846e-04 -3.356248153846417745e-04 -1.689999999999999879e-04 -5.861237619300058762e-04 -1.036722513550174539e-04 -3.959999999999999762e-04 4.396443751091625297e-04 5.274299417812781341e-05 -8.899999999999999491e-05 3.539664462106116376e-04 -4.000409416010193217e-04 -1.111999999999999924e-03 -1.096237775495525341e-03 -1.364395088551063255e-04 5.959999999999999586e-04 5.879546935102238732e-04 -8.145107966932577310e-05 1.060000000000000016e-04 9.169817422561093133e-04 -3.357387144327422714e-04 -1.459999999999999981e-04 7.972691473891778749e-04 -2.163490388731448407e-04 -8.000000000000000654e-05 -3.493666771951008739e-04 -1.404791416853638699e-03 -4.859999999999999954e-04 5.110749658270253779e-04 1.387817686330046138e-04 2.669999999999999847e-04 3.398122754080120885e-04 1.675757067179766953e-04 2.090000000000000115e-04 6.070195987068331168e-04 -1.510106181226845534e-04 1.291999999999999963e-03 -9.978177150765695901e-04 -5.115474053667154008e-05 -1.200000000000000030e-05 -5.943941718471296674e-04 -7.743105626403998785e-05 -4.730000000000000046e-04 1.121911178905112688e-03 5.898994038374174567e-04 -1.599999999999999928e-05 1.367101129470695952e-04 -1.838534836498345809e-03 5.029999999999999749e-04 -1.105396090788772143e-03 -1.061719476552098893e-04 1.369999999999999961e-04 5.053199838322109620e-04 -6.043473454395362210e-04 -5.700000000000000314e-05 8.372309817444204374e-05 3.828112365540916814e-04 1.240999999999999916e-03 -6.354190335559512263e-04 -5.074531030497507478e-04 8.500000000000000611e-05 -5.992734429969056448e-04 -1.075684126739181144e-03 -1.039999999999999936e-04 6.045105134881571026e-04 -5.631012689403965248e-04 4.879999999999999898e-04 1.117348484359037249e-03 5.340050229169776086e-04 -1.170000000000000033e-03 -6.703552623884024295e-04 -5.404903534644964116e-04 -5.509999999999999490e-04 -1.117397142182251224e-03 -1.418507195714498756e-04 3.999999999999999819e-06 1.036374343729432350e-03 5.002531555716448501e-04 -9.899999999999999404e-05 1.431137853552664606e-03 -5.521815318612821252e-04 6.999999999999999895e-06 -1.887917774906620232e-04 -1.243212638590806803e-03 1.730000000000000038e-04 5.919452075043203382e-04 -6.547861263898824757e-04 3.190000000000000019e-04 4.203876442322993282e-04 1.010654356630800565e-03 3.300000000000000253e-05 2.909867483385980341e-04 -7.615584213525220349e-05 -5.119999999999999768e-04 -6.652555079267397434e-04 -2.505196782153761037e-04 -6.099999999999999872e-05 2.715888034377394230e-04 -8.779268317162068755e-04 -3.550000000000000096e-04 4.592829238146133334e-04 9.705525209344933102e-04 8.700000000000000051e-05 1.476388101533848305e-03 -6.154698803753756806e-04 4.829999999999999767e-04 -6.697344240132102394e-04 -3.034152291690277430e-04 -7.299999999999999903e-05 6.049064796808740129e-04 -6.921626621250907222e-04 -2.300000000000000002e-05 3.160443134208883891e-04 -2.827004478115018327e-06 -2.889999999999999774e-04 4.855792397335624631e-04 8.017523320451119774e-04 -5.599999999999999916e-05 -3.514739443936087124e-04 -5.133849105811335830e-04 -1.154000000000000078e-03 -3.250637294265590316e-04 -1.409772031617056141e-04 4.989999999999999861e-04 1.420508109579787532e-03 1.773998608174724657e-04 -6.099999999999999872e-05 1.053590391288412561e-03 3.287054720942894875e-04 -1.640000000000000019e-04 2.515134363768541554e-05 -2.097841984354852703e-04 3.300000000000000253e-05 3.595522880282292131e-04 -1.417593789551035424e-03 -5.330000000000000536e-04 1.304503230083904879e-03 2.146539603656527043e-04 3.080000000000000055e-04 4.466388394190672030e-04 7.328129004885140536e-04 2.000000000000000096e-04 2.775347593332514308e-05 -2.598764024947597200e-04 1.245999999999999929e-03 -3.872629579657920667e-04 -1.472426615746441722e-04 -6.200000000000000270e-05 -4.170315058002176806e-04 -1.033757090988982139e-03 5.899999999999999754e-05 7.552101662323426438e-04 -2.258971138553858733e-03 2.669999999999999847e-04 -1.244662604121993645e-03 6.740215144194268860e-04 5.300000000000000078e-05 -1.937689754641719266e-04 -2.396822566390034920e-04 -4.829999999999999767e-04 -9.921445577083150020e-04 -1.566904329118332670e-03 -2.829999999999999942e-04 6.233920098423153958e-04 -1.785105151542832258e-03 4.060000000000000024e-04 -7.921659761376075417e-04 -1.391420520996420902e-03 -8.200000000000000095e-05 1.198908102125194417e-03 -2.383410447795042235e-03 -3.000000000000000076e-05 -1.640984367299311254e-03 3.099472637067154056e-04 1.420000000000000092e-04 -7.448769986715856424e-04 1.480732420158187320e-05 -1.179999999999999951e-04 -6.162116919807331030e-04 -1.252279980941259883e-03 1.000000000000000048e-04 6.688083517858454735e-04 -2.200535477692077725e-03 -5.659999999999999884e-04 -8.553533516131167636e-04 -1.325630281746840436e-03 1.489999999999999897e-04 1.093865274828006344e-03 -2.383477031675667462e-03 -1.379999999999999933e-04 -1.170680001888567325e-03 7.439827505918291620e-04 -1.879999999999999890e-04 -7.316192703840367507e-04 9.546854561964324484e-05 4.009999999999999893e-04 -9.539195058028382109e-04 -1.630996804548944835e-03 2.930000000000000204e-04 6.415031572606081549e-04 -1.566525677805720223e-03 -3.199999999999999855e-05 -6.184995624090911968e-04 -2.193583208200628864e-03 3.600000000000000091e-05 1.204079440515377040e-03 -2.341538532872815531e-03 -1.420000000000000092e-04 -1.163995040000299214e-03 -5.206971738493522102e-04 7.899999999999999579e-05 -9.698887562624141506e-04 2.681898590098954452e-04 -5.710000000000000015e-04 -1.211814614377150576e-03 -1.945917608837012839e-03 -2.840000000000000185e-04 7.979871811096727252e-04 -2.160127185788984858e-03 -1.000000000000000048e-04 -4.797492570203204087e-04 -2.204462213418150254e-03 2.790000000000000054e-04 1.127099471272025640e-03 -2.053276353016884968e-03 6.700000000000000226e-05 -7.218667002130609717e-04 -7.371285282252389203e-04 3.390000000000000001e-04 -8.597770265704908618e-04 -1.590517669867445752e-04 -4.500000000000000283e-05 -8.150796904281363414e-04 -1.602863094045019546e-03 3.999999999999999819e-06 1.134300029927438110e-03 -2.869795888579293117e-03 -1.190000000000000058e-04 -5.149647473847871132e-04 -2.247495563722189549e-03 -3.069999999999999812e-04 1.196737788137093800e-03 -1.888156684823782310e-03 9.399999999999999448e-05 -1.226032443146649097e-03 -5.569788580833733103e-04 -3.750000000000000078e-04 -8.596373958044830569e-04 -1.540537170420977324e-04 3.959999999999999762e-04 -1.175996211694902826e-03 -1.952920610285844780e-03 3.789999999999999966e-04 7.794628729196831233e-04 -2.357686923605378272e-03 -1.069999999999999988e-04 -6.594333308739936360e-04 -8.299082371759121260e-04 -1.099999999999999971e-05 9.211655448873225932e-04 -1.439285947583885273e-03 -3.299999999999999982e-04 -1.087475426394995124e-03 -3.764567687030863211e-05 2.900000000000000017e-05 -1.926562099356859915e-03 -1.722657171978501857e-04 -1.359999999999999989e-04 -3.256473730311908242e-04 -8.422344023120192837e-04 1.430000000000000064e-04 1.598124185139682910e-03 -1.629264892174266382e-03 3.710000000000000190e-04 -9.711956742376853238e-04 -1.139322589235378710e-03 2.770000000000000110e-04 5.856668230818657794e-04 -1.022754306928694550e-03 1.050000000000000044e-04 -1.124253318381886147e-03 2.214824510143356922e-04 -1.459999999999999981e-04 -1.620344865949192902e-03 1.893238373583543707e-04 -7.899999999999999579e-05 -3.611807826550964473e-04 -7.892214152192349695e-04 4.899999999999999842e-05 1.109013444394333454e-03 -1.590590827382270785e-03 -4.539999999999999765e-04 -9.426759976368336274e-04 -1.121111931735364366e-03 -2.919999999999999961e-04 6.023086159546980206e-04 -9.641962098798855614e-04 3.330000000000000169e-04 -1.029877550129260728e-03 1.876783790830743398e-05 2.480000000000000108e-04 -1.628447718947107457e-03 2.215626923829080237e-04 -6.399999999999999710e-05 -2.787158243315871657e-04 -8.095322657356925251e-04 -1.659999999999999963e-04 1.545797888824284368e-03 -1.711835823584255357e-03 -6.799999999999999946e-05 -9.658014174980721024e-04 1.524565715854424861e-03 3.600000000000000091e-05 9.529046550679739006e-04 -7.328967992492435276e-04 2.010000000000000068e-04 -1.435021542680725310e-03 2.669115616087514454e-03 -6.799999999999999946e-05 -6.068447270033095961e-04 1.947706465899900043e-03 -4.970000000000000459e-04 -1.786708164725724730e-03 2.040691778319899275e-03 -1.279999999999999942e-04 8.485342498829175984e-04 -1.717632870424718112e-04 3.669999999999999760e-04 -1.294132506849213129e-03 1.266634143987983635e-03 -1.100000000000000039e-04 1.344103737678322428e-03 -8.028487668042868369e-04 -1.500000000000000038e-05 -1.712965434818459554e-03 2.173684296101254573e-03 1.620000000000000075e-04 -1.273672636648264054e-03 2.285460131932618051e-03 -7.700000000000000139e-05 -1.487829046605308563e-03 2.354467610326703517e-03 5.199999999999999680e-05 8.108877212330527088e-04 -6.599023439520934490e-04 -5.119999999999999768e-04 -1.235574409800403815e-03 1.249992351115151393e-03 7.299999999999999903e-05 1.304197385054425840e-03 -8.347467764640952026e-04 -1.369999999999999961e-04 -1.409976172129519690e-03 2.491346863450970197e-03 -7.299999999999999903e-05 -1.241775358466886900e-03 2.066483960524357569e-03 3.260000000000000094e-04 -1.786819869338530887e-03 2.036693338364181736e-03 3.310000000000000225e-04 8.289774055029020374e-04 -2.272387756648882175e-04 -4.100000000000000047e-05 -8.123906131569166985e-04 1.859412136040455334e-03 5.700000000000000314e-05 1.203343480737471046e-03 -6.848718620053155254e-04 2.000000000000000164e-05 -4.103010622763934748e-04 2.000238245383500080e-03 7.399999999999999623e-05 -8.725433065508153693e-04 2.499341548927110773e-03 -5.410000000000000312e-04 -4.348180303520639712e-04 1.659790131456610317e-03 -3.350000000000000113e-04 6.873120486069478211e-04 -2.132771620209738378e-04 -1.179999999999999951e-04 -7.343043293597248996e-04 1.718176403016746356e-03 3.840000000000000097e-04 1.013313804189706424e-03 -1.103409907449871667e-04 1.069999999999999988e-04 2.241097038505760809e-04 1.755426113694338050e-03 3.370000000000000057e-04 -7.712096575815390476e-04 2.223404071250424836e-03 -4.699999999999999724e-05 -4.635924784650024839e-05 1.993071955584922294e-03 1.500000000000000038e-05 9.751524102511291469e-04 -8.675706177490187304e-04 -1.710000000000000094e-04 -7.053378343076482492e-04 1.752380820339630640e-03 -1.820000000000000057e-04 1.143435659717628337e-03 -2.510296637573183128e-04 1.759999999999999954e-04 -4.166954198811180683e-04 1.950397376703039620e-03 -3.980000000000000248e-04 -7.641729984531786708e-04 2.296235969676260931e-03 3.570000000000000040e-04 -3.614662665896204536e-04 1.778788109392954444e-03 3.269999999999999795e-04 6.782589749217490674e-04 -3.940948654043825391e-04 -3.899999999999999929e-05 -2.554295608298297305e-04 1.742812881365719173e-03 7.999999999999999638e-06 1.434104488796787615e-03 -2.311391684957469475e-04 -3.469999999999999777e-04 -4.442456070815361505e-04 1.393949726707802671e-03 1.350000000000000017e-04 -1.121693260603577342e-03 2.175172919359864235e-03 -8.899999999999999491e-05 -8.050573872881187573e-05 1.164702462447696771e-03 8.899999999999999491e-05 1.767310460427115940e-03 -4.937343886034824546e-05 3.330000000000000169e-04 -6.703636792262051116e-04 1.500305814683894736e-03 4.029999999999999837e-04 1.130270367329736566e-03 4.236011056835227635e-04 6.000000000000000152e-05 -5.811183972010447755e-04 1.686886305722614179e-03 -1.039999999999999936e-04 -8.844376533793832200e-04 2.610717149996293843e-03 -7.299999999999999903e-05 -1.527282618321086801e-04 1.336786474362208332e-03 5.899999999999999754e-05 1.456906498474509933e-03 -2.369503540286562577e-05 -4.479999999999999933e-04 -6.291619919808153502e-04 1.471143836559407527e-03 -3.420000000000000188e-04 1.013817937904197422e-03 2.657916266244692493e-04 3.330000000000000169e-04 -3.371083182942317090e-04 1.468987059758129808e-03 2.190000000000000106e-04 -9.653681362336699384e-04 2.327866912335138476e-03 -8.500000000000000611e-05 1.025255561712759804e-05 1.262205959858896326e-03 -7.600000000000000418e-05 1.913794847295854484e-03 -1.415001147131639053e-04 -4.000000000000000327e-05 4.743275650036873236e-05 -3.074445211916724814e-04 1.079999999999999960e-04 1.083404550731201363e-03 -1.289758341494608640e-03 1.939999999999999993e-04 -1.543200025098108268e-03 1.983869371339050305e-03 1.129999999999999955e-04 -5.342842844489932184e-04 1.107352384469743834e-03 -4.910000000000000085e-04 -6.941804193376673168e-04 3.255127423130781627e-04 -1.469999999999999953e-04 1.151874237731268045e-03 -1.488748044650608539e-03 3.780000000000000265e-04 -3.099543378887800868e-04 -6.385932261024446178e-04 -4.399999999999999886e-05 1.461713945093516369e-03 -1.570432533641336927e-03 -7.200000000000000182e-05 -1.753024344217879622e-03 1.706620827418754227e-03 8.600000000000000331e-05 -1.146781677752795004e-03 1.384565196576342154e-03 -4.600000000000000004e-05 -3.498161809578018838e-04 6.560248772265411419e-04 7.799999999999999859e-05 1.190019779746603933e-03 -1.877965101862077903e-03 -5.389999999999999826e-04 -3.001479895455707128e-04 -6.098558718023070705e-04 5.700000000000000314e-05 1.517747956779963913e-03 -1.569997178242765225e-03 -9.299999999999999727e-05 -1.463638655229129379e-03 2.038668900758303006e-03 -1.399999999999999877e-04 -1.154890262277036023e-03 1.380790165846237146e-03 3.299999999999999982e-04 -5.946662388959557399e-04 3.067263671700528834e-04 2.770000000000000110e-04 1.229525166129888467e-03 -1.573949765987869972e-03 -4.800000000000000122e-05 -7.469234135157952047e-04 7.651571174222405840e-04 7.299999999999999903e-05 7.922258564112249482e-04 -1.721795339880295272e-03 -9.699999999999999963e-05 -1.333565457524421224e-03 2.290134531091499431e-03 7.200000000000000182e-05 -8.120934255674899446e-04 2.156519711978088869e-03 -5.379999999999999583e-04 -1.290376133654950585e-03 7.923442646310387095e-04 -2.860000000000000129e-04 1.234702967524828983e-03 -1.316994146526620415e-03 -6.299999999999999990e-05 -6.203137902865111944e-04 7.136012903438322154e-04 3.829999999999999854e-04 7.219925531899963828e-04 -1.263655314212776271e-03 2.900000000000000017e-05 -8.062862486584294842e-04 2.006298952106668788e-03 4.049999999999999781e-04 -6.442162626906225908e-04 1.791689260693641325e-03 -1.160000000000000007e-04 -1.008250513020172816e-03 1.043563559633316424e-03 9.899999999999999404e-05 1.510972633126207894e-03 -1.919944452827647375e-03 -1.169999999999999979e-04 -6.277858048134431646e-04 6.968034036044438821e-04 -2.509999999999999753e-04 6.640595630858432989e-04 -1.332064148858544623e-03 1.649999999999999991e-04 -1.399673616033440555e-03 2.322993493012813493e-03 -4.220000000000000118e-04 -6.896734567968705338e-04 1.775952567775911919e-03 3.510000000000000208e-04 -1.343405583848283512e-03 8.278390165275209154e-04 2.799999999999999755e-04 1.308048999760945928e-03 -1.234010054344934814e-03 -1.200000000000000030e-05 -1.093951368024030212e-03 4.467240808355346236e-04 5.599999999999999916e-05 2.027490272913810756e-03 -2.302518011490872415e-03 -3.579999999999999741e-04 -2.384677745633892768e-04 8.459894328505437183e-04 6.600000000000000506e-05 -1.519881807475935345e-03 1.421999047574816445e-03 -6.700000000000000226e-05 -4.496419379553190181e-04 -4.106033702148401197e-04 9.200000000000000007e-05 1.025928379174063194e-03 -1.628285282376917787e-03 3.110000000000000243e-04 -1.399470447601658092e-03 1.101247760025641728e-04 3.669999999999999760e-04 1.704785997844129701e-03 -1.750290747720102463e-03 1.099999999999999971e-05 -3.113211361376685580e-04 1.067110186528997130e-03 -1.259999999999999998e-04 -1.103456139907224099e-03 1.789513215179214245e-03 -1.069999999999999988e-04 -5.215178841675439632e-04 -1.544962669238588630e-04 4.500000000000000283e-05 6.978615512112526726e-04 -1.447052955264949712e-03 -4.910000000000000085e-04 -1.453198051625029718e-03 1.206292781758123951e-04 -3.060000000000000111e-04 1.644357580009247815e-03 -1.621553005321173810e-03 4.220000000000000118e-04 -1.826908297820822934e-04 8.014144125940924311e-04 9.100000000000000287e-05 -1.326843912042898746e-03 1.778747377531361652e-03 -9.000000000000000567e-05 -3.752848326776194897e-04 -2.556194326770387898e-04 -1.190000000000000058e-04 1.137812382527200652e-03 -1.562384069992962593e-03