1.088734859279948250e-03 -1.633439530854010890e-01 3.370360194471764843e-03 4.569037059792352895e-04 3.780332718632515871e-04 2.372013248029362312e-03 -5.710893164405383710e-04 -2.566969155457153335e-03 2.144013140719773676e-03 -8.722000683180034398e-04 3.836071387051411680e-03 4.986910100881258856e-03 4.368887083703147829e-03 4.789037197990724838e-03 2.865110009425984438e-03 -1.288126078588068026e-03 -2.179551537357111827e-04 3.091950639421879587e-03 -4.421171578892740817e-03 5.268064638281923229e-03 4.314745280648051712e-03 -2.139125967473330583e-03 -2.329545299378564071e-04 3.088916198646820058e-03 2.731922659412729191e-03 3.158025649015051839e-03 1.960066474166208359e-03 1.103876118478274012e-03 4.204227859930005103e-05 3.043044357524799220e-03 -6.621489855007497895e-04 -5.049477468303546681e-04 3.648980199175007235e-03 -7.181034426504634763e-04 4.520367013460539936e-04 2.548964351710264996e-03 2.458933587433072623e-04 -4.589631885248839126e-04 2.610016522496554428e-03 1.548556235369690133e-04 3.890502523033056862e-04 3.553000793279071506e-03 1.958746000980571180e-04 1.820435566575105647e-04 3.083005398067915643e-03 -2.141274272935095129e-04 1.180044855853204814e-03 3.151974553046875318e-03 -4.301256414569832394e-04 -2.295592481063875082e-05 3.084982813254768651e-03 -1.811230737158408795e-04 -1.266957353119468541e-03 2.998010589965324595e-03 1.587406845076458180e-05 2.304383939080128076e-05 3.093000322569810102e-03 6.187344973929583523e-05 -3.895599813163649476e-05 3.107003074737282010e-03 1.187188595878348079e-05 -7.955406050934689656e-06 3.146000599147804645e-03 5.387136201306161733e-05 -5.295526879869236035e-05 3.158002947411752380e-03 -5.124010625157414601e-06 -1.995682469612198703e-05 3.045000077120386429e-03 1.618741184284126951e-04 -1.695630327819575101e-05 3.091006834926471152e-03 6.874431786514019074e-06 -3.295629533454150488e-05 3.083000750046200299e-03 3.287438800974093180e-05 1.710437551759697266e-04 3.087998916519933950e-03 4.887747719537170472e-05 -4.395739155392337143e-05 3.008002616347065037e-03 -1.648632985110277287e-04 -1.540475081825297323e-04 -3.360004532441409741e-03 -3.288186719864716031e-05 1.059589243994291455e-04 -2.899002843936108846e-03 1.061345116917634344e-04 -2.460469831198544414e-04 -3.307992192784857573e-03 4.910483655803285068e-05 2.696346798520152065e-05 -2.573998385085122728e-03 -3.118729482947272332e-04 1.589560520906244578e-04 -3.117014956272381575e-03 1.511222353420730127e-04 2.489573908897748213e-04 -2.996997378628578519e-03 -5.587026090663158468e-05 2.109549300816677562e-04 -3.182005268917772068e-03 5.012938111221893931e-05 1.699549605105714085e-04 -3.174000371226688450e-03 -6.872337126389823659e-06 -2.040444985981065276e-04 -3.138997389864200960e-03 -3.496195143126664545e-02 1.177436185568986153e-02 2.359040940740596282e-02 -2.267866867663544637e-03 -1.380446138972348132e-04 -3.272090395317328419e-03 -3.036454999722241338e-02 -1.446048500644540012e-02 -3.588703148554570760e-02 -9.949073598974173330e-03 4.074034528940105072e-03 1.885537106290652775e-03 -3.406890308901730675e-03 -7.450357257268357342e-04 -2.708128170988618848e-03 -2.617910055997581774e-03 2.584971439763149650e-03 -2.159143254699783052e-03 -5.758754997932172270e-04 9.559573645893012497e-04 -3.039037006327068285e-03 -5.318813097547997167e-04 -1.002041180996627581e-03 -2.934007454646358082e-03 -1.308210881168643232e-04 1.359378478593461636e-04 -4.391007258525461178e-03 2.112139429167095138e-05 6.957719548397286057e-06 -2.980999241335338234e-03 -3.487229079738692403e-05 1.095556583749747371e-05 -3.136001578269966440e-03 1.113251735787595732e-05 1.495385683941819448e-05 -3.253999761712176447e-03 1.312390880393152670e-05 -6.043153209635437340e-06 -3.042999382733586802e-03 -9.873925136736798536e-06 3.956113375113783670e-06 -3.096000461041528099e-03 -2.487227278349072676e-05 3.395555800521725105e-05 -3.136001497150014972e-03 -6.873561760977525910e-06 5.195599759892345843e-05 -3.104001019404184752e-03 1.812363158963931477e-05 3.956942118943210860e-06 -3.035999320913473042e-03 1.012418995941368929e-05 4.095676406784271305e-05 -3.049000171245445402e-03 -5.399855356932784200e-05 2.699954605623279663e-05 -3.500258169303796366e-05 2.399959901530086110e-05 -4.399989118731376792e-05 9.001601113652969697e-06 4.699085111774622985e-05 6.900316737397676917e-05 2.260009354042339877e-04 6.899796620152864640e-05 -1.009993734823753703e-04 4.800424164821651574e-05 -1.220026929093057132e-04 9.700105960583701873e-05 6.799365674989476724e-05 -6.199497015375296299e-05 -2.500170949834308582e-05 -1.240021701334123594e-04 4.299220115239078940e-05 2.500268846535474873e-05 1.920013963740284553e-04 -6.600066244872859484e-05 -1.399972147611653517e-05 1.599751089764126977e-05 -3.073602375396029000e-09 7.900109168227885934e-05 7.699887988510701882e-05 -1.804962405107035390e-03 4.779884547549115618e-04 -9.140802772575498756e-04 1.060006212895199139e-03 1.485997411827643788e-03 -1.239779039390584479e-04 5.651223129432767812e-03 2.357292431531279875e-02 -5.026104094216390754e-03 -2.451662337145429481e-03 5.230233952395248534e-03 1.636582602827717225e-02 2.197951241261295735e-03 -1.576985175379382173e-03 1.167111861678900948e-03 -1.512854157930457015e-02 2.189585821315091774e-02 -1.083692649199229259e-02 -1.241044933490020050e-03 3.561017587715405511e-03 1.171898977318568298e-03 2.850007462502637205e-03 2.510995854205444033e-03 -1.349195458128879695e-04 -1.031960821278474216e-03 1.044987452463452815e-03 -9.420568388054939568e-04 -1.600145658405079834e-05 -9.199950541774449229e-05 3.400065278901477156e-05 8.199902963402766595e-05 -9.499975228460971787e-05 2.200468597686978123e-05 3.539985047889142354e-04 1.500024739627706739e-05 3.701420248044813392e-05 9.200763972018496223e-05 -1.240027658042647382e-04 -1.899944954624036594e-04 1.490012152829944532e-04 9.599948634562468889e-05 -2.799529363244771795e-05 1.139884775498160911e-04 1.580039655719838712e-04 2.860024018245343569e-04 3.499849562562971575e-05 -4.899951699929262300e-05 3.600211990673343271e-05 -1.290086757077063225e-04 1.530031633948784366e-04 2.159925776116022129e-04 -5.999566559394854535e-05 -1.330014983865173274e-04 -1.090005575071996462e-04 -1.355819116227041307e-02 1.698442997837575075e-02 2.957820712479009365e-02 2.183126720993763901e-03 2.830234693293234488e-05 2.144608851742529562e-02 1.225179758092990144e-02 1.787241392324948747e-02 2.987224553983108127e-02 -1.430083157675518871e-03 4.104604126706305756e-02 2.831359826071005743e-03 1.913151988227471947e-03 1.093294051557312319e-03 2.084606242403515969e-02 -1.490800750076186733e-03 1.070280256458128881e-03 1.968492413742578204e-02 -8.498249531409349938e-04 5.322880344443217540e-04 2.026895786658520701e-02 1.178124255660104426e-03 2.857304764005340076e-03 2.156100748397016958e-02 2.020759581600856624e-04 3.944322640699008710e-03 2.276795232806856639e-02 -2.620736104218385470e-03 2.292258967048645731e-03 1.812086079909095565e-02 -1.009857397606059044e-03 -2.670069647278415422e-05 2.105495927588814375e-02 -2.620963518303807884e-03 -2.473663153840956978e-03 2.361392836520535485e-02 1.500127491338336741e-03 2.330261234169900216e-05 2.142706077599046410e-02 8.671072078246893060e-04 9.003104094544660783e-04 2.194202256531440146e-02 8.441934052019512292e-04 -8.257200546226525946e-04 1.979204610155320745e-02 -3.185151237641740756e-05 6.252966662222583620e-04 2.092298985710146220e-02 1.271370670597442992e-04 -5.936998144578330399e-04 2.118001361417154796e-02 -6.528718013009355073e-04 4.030405710818775239e-05 2.140997286299183011e-02 -9.385694492655383646e-05 3.229844451883549946e-05 2.104499573970901663e-02 -9.686130834751606532e-05 -2.770005027981884102e-05 2.115099646811373357e-02 5.814433839993921217e-05 -4.470214235606470067e-05 2.101200302099685141e-02 3.614440347976675998e-05 9.029788903403655341e-05 2.101300021113912744e-02 -1.238540208619072101e-04 -2.970256696409102304e-05 2.097199539717268038e-02 -1.178569847689708139e-04 1.892985200060973074e-04 2.104899253649600635e-02 -1.118523857696716449e-04 -2.170314347266591605e-05 2.093199577243796961e-02 -1.068552425012073533e-04 -2.970215494116477831e-05 2.100199608939926077e-02 7.414127342858310005e-05 9.729895096971991108e-05 2.109000165921554731e-02 1.758584627586180825e-04 -1.109299330928077264e-03 -2.110297713109405421e-02 -5.071668693141471182e-04 -2.312897366189782717e-04 -2.046401739210570309e-02 4.388166786818756943e-04 -2.312847495040150348e-04 -2.005997887055610898e-02 -1.265105087085616588e-03 2.986894909010654972e-04 -2.197105577132458382e-02 1.196901297725731436e-03 1.866853089063576796e-04 -2.212995392853182169e-02 7.785883161906458571e-05 4.007010292092278076e-04 -2.108300253017889384e-02 4.518591587676425722e-04 6.627006938088668116e-04 -2.108599101515181221e-02 4.085918062390128262e-05 -1.932992253159396734e-04 -2.110299561524029213e-02 -4.151506753672130358e-04 6.877048036904916811e-04 -2.084402667479878096e-02 1.293328019474356549e-01 -3.943806256989561363e-04 -1.969872788652777054e-02 -9.580127346269033325e-03 -5.222964699937938850e-04 -2.144038272575142859e-02 -1.277029170246132134e-02 -7.942368215155266430e-04 -1.740950877266203914e-02 -2.573987651442365566e-03 4.294650718368606471e-03 -2.477816572665212866e-02 -4.902113695338846657e-04 -7.081276124378009691e-03 -1.950291958306482956e-02 -1.034133535357152070e-03 2.189699730517910732e-03 -2.123607317564195004e-02 -1.123907661686731176e-03 6.652622375597165745e-03 -2.669714011080036309e-02 -1.009134206925347155e-03 1.280699696856849295e-03 -2.123705927003274874e-02 -1.962294839959617329e-03 -4.215245127837354694e-03 -1.739802015958457487e-02 1.598567812298611794e-04 1.870157468725363892e-05 -2.103999377520342912e-02 -9.614125142031601707e-05 3.470109459847913413e-05 -2.108800442654090723e-02 4.585141241713790790e-05 -2.529647875555629999e-05 -2.090899779368064065e-02 2.185130516241972197e-05 -6.296417432177887188e-06 -2.090599904036136159e-02 -5.313741669482040253e-05 -6.030030012913334679e-05 -2.118400132856754214e-02 6.185660353988611695e-05 -2.982918660262111157e-07 -2.103599749647304742e-02 -2.814577624136004792e-05 -7.529741325447560996e-05 -2.097900009807037933e-02 5.085629254527910073e-05 -2.412982406953868592e-04 -2.103299452756420343e-02 -1.714091714977281330e-05 -5.829910902679534876e-05 -2.109799989105237000e-02
1.083735441254364378e-03 -1.630689532091139649e-01 3.361356091990922064e-03 4.569037514015162433e-04 3.840332576848513087e-04 2.371013162963711042e-03 -5.690892765049305503e-04 -2.567969171200840204e-03 2.143013236340168826e-03 -8.671999477267772942e-04 3.834071340603246655e-03 4.983910332843830004e-03 4.369887239533516536e-03 4.780037140497453950e-03 2.861110177750425098e-03 -1.295125871843768239e-03 -2.139552191441181561e-04 3.086950297669515536e-03 -4.421171298548302181e-03 5.262064539037960426e-03 4.307745365721139114e-03 -2.143125845307492904e-03 -2.329545693392578738e-04 3.085916035766204414e-03 2.734922902951707202e-03 3.157025561599391492e-03 1.954066610512102641e-03 1.103876113776832953e-03 3.604227859990492388e-05 3.043044442591380169e-03 -6.511488649144998777e-04 -5.069477979764967258e-04 3.645980675462684971e-03 -7.271034434265724730e-04 4.510367083931202418e-04 2.548963999400368028e-03 2.388934018206735545e-04 -4.559631972220086200e-04 2.609016194918236092e-03 1.588556243172248804e-04 3.900502491712202449e-04 3.553000941984712190e-03 1.988745123853010246e-04 1.740435826649193245e-04 3.085005633650717873e-03 -2.111273051334776752e-04 1.180044810970830305e-03 3.148974675212217432e-03 -4.331255122398136332e-04 -1.395596499594367692e-05 3.081982563495132971e-03 -1.811231128695339168e-04 -1.264957338941875148e-03 2.999010561608868222e-03 1.587419453115205528e-05 2.804379685691113337e-05 3.090000251683781753e-03 6.287316234186588132e-05 -4.195589966976267317e-05 3.114003157984916552e-03 1.187164085016992299e-05 -8.955320984061697389e-06 3.152000613319990135e-03 5.887156404596770093e-05 -5.495534360244833799e-05 3.153003179376182886e-03 -9.123886892172806048e-06 -1.795686409772507340e-05 3.041999885884244092e-03 1.618739531943322080e-04 -1.995624656671186531e-05 3.095006877456043127e-03 1.287431196973804631e-05 -2.995625749943478869e-05 3.086000951835228025e-03 3.287414446827434974e-05 1.720438402426410958e-04 3.093998902336593179e-03 4.387731509973215478e-05 -4.295733092786195215e-05 3.012002398561327773e-03 -1.578631755707399968e-04 -1.530475561969897103e-04 -3.363004261570426510e-03 -3.188178654137001410e-05 1.049588952609430907e-04 -2.901002789035634754e-03 9.313447254885258008e-05 -2.440469587633106740e-04 -3.306992750512378291e-03 4.710483891041211365e-05 2.996346955089139821e-05 -2.573998509060115326e-03 -3.108729107090106060e-04 1.549560371302361806e-04 -3.118014858839546904e-03 1.501221452819140323e-04 2.379574200294706354e-04 -2.994997263395890279e-03 -4.987025621016706394e-05 2.169549253830859380e-04 -3.182005109659245996e-03 4.812942810330565302e-05 1.779549478979618345e-04 -3.175000566089568321e-03 -1.087229561865872657e-05 -2.030445096440180574e-04 -3.139997566924439525e-03 -3.490695001783646750e-02 1.175936131640374985e-02 2.355541185975176463e-02 -2.267866905250090492e-03 -1.340445997198427082e-04 -3.271090452029311486e-03 -3.032155213038824348e-02 -1.442848428869430641e-02 -3.583403018828679870e-02 -9.945073600544638778e-03 4.072034525808321780e-03 1.885537297529584150e-03 -3.417890350397021111e-03 -7.460357029359819189e-04 -2.707128604741147401e-03 -2.609909977696830714e-03 2.580971405143992620e-03 -2.161142872220061378e-03 -5.718754637771358449e-04 9.499573472801260687e-04 -3.040036758376153409e-03 -5.338813982469824224e-04 -1.011041151074137208e-03 -2.932007408490048574e-03 -1.308209228827838361e-04 1.389377911478622575e-04 -4.395007301055032720e-03 2.612135591740440103e-05 9.957729810909435455e-06 -2.979999080265302320e-03 -3.387220700581584665e-05 1.395553669860815565e-05 -3.138001580080547036e-03 4.132842346828362364e-06 1.395374889812919121e-05 -3.262000032572934076e-03 1.212402861656049941e-05 -9.043194959722935961e-06 -3.045999380918358677e-03 1.259887118482563420e-07 -2.043866098652179878e-06 -3.093999968768295673e-03 -3.587215452971472630e-05 2.895552408529293112e-05 -3.139001874187771421e-03 -3.873474836771293844e-06 5.895596689363858685e-05 -3.106000996484116396e-03 1.812367857906722405e-05 1.195692794034135592e-05 -3.036999434334651440e-03 8.124225980471577843e-06 3.495675145664452486e-05 -3.050000167619637548e-03 -4.399740869266060493e-05 3.299914124739619875e-05 -6.300225952507885400e-05 1.999988641521900640e-05 -4.099998730019912023e-05 2.001395703465290648e-06 4.999080412583012579e-05 6.100317920359015058e-05 2.270011709879654897e-04 8.199861145559872878e-05 -1.089996105052447241e-04 3.200488445626233915e-05 -1.210018503096706589e-04 8.100076109075121710e-05 4.699392433448291924e-05 -8.199559427051440687e-05 -4.200148116977572198e-05 -1.090027435423997264e-04 4.999127710444051833e-05 4.100300907206202414e-05 2.150014545543900153e-04 -6.100057160831372699e-05 -1.999753747897779892e-06 1.399754437059444268e-05 -1.900347609357598815e-05 8.500124833655458916e-05 8.699802111305901043e-05 -1.790961785686738528e-03 4.889882311249260432e-04 -9.290798631070884854e-04 1.032007553571848667e-03 1.481996965884692504e-03 -1.569789873811590667e-04 5.626223234327444242e-03 2.344692426401142477e-02 -5.031103325834823843e-03 -2.456657663647562363e-03 5.218232325864972758e-03 1.625082599491298532e-02 2.179952344656773365e-03 -1.571985544086430125e-03 1.140111057839862533e-03 -1.503254217614243167e-02 2.180985832230329657e-02 -1.082392136351501173e-02 -1.240043625747509716e-03 3.515017119069799648e-03 1.138899670247215659e-03 2.813008696670719899e-03 2.474995443668274661e-03 -1.659205420560769012e-04 -1.003959046039780076e-03 1.023986806718681390e-03 -9.860554008477274111e-04 1.999998742125489164e-05 -6.800002983086329714e-05 -9.982214941322994202e-07 6.399932958273321095e-05 -7.599983743716185413e-05 1.500368363055099592e-05 3.299996551787955307e-04 2.799986920860409066e-05 9.013040895125019254e-06 1.110099239893344201e-04 -1.190035746382360959e-04 -2.459937926029922596e-04 1.490022904548966463e-04 6.499910354827503553e-05 -5.499485409668107761e-05 9.699045878075368055e-05 1.400032841727603364e-04 2.370019648153580622e-04 4.900075014811499676e-05 -3.000030774189919806e-05 -1.899757932772890075e-05 -1.420075002775782181e-04 1.460027624184685843e-04 1.869921475118403091e-04 -5.499420670001650739e-05 -1.420020127012238482e-04 -1.450002262696072997e-04 -1.349718171278536764e-02 1.688342661301905218e-02 2.934421104093364735e-02 2.187133588708084411e-03 1.029994775534594346e-05 2.127708893566554460e-02 1.217780809005233195e-02 1.777241029497449165e-02 2.961224394450614333e-02 -1.427079773271751686e-03 4.079204001709369615e-02 2.743363549467284571e-03 1.887158971885589042e-03 1.119291647509584268e-03 2.067506099683014131e-02 -1.453792593401696679e-03 1.086277391926585663e-03 1.948492541743897591e-02 -8.408162991988144680e-04 5.072850075294642542e-04 2.005595858771495876e-02 1.170133352844124211e-03 2.826301594446273269e-03 2.133700759792225496e-02 1.920863623305119245e-04 3.918319019015978864e-03 2.251195228971988177e-02 -2.572729561498723113e-03 2.327256661014044051e-03 1.796086225761882316e-02 -1.020850341138011515e-03 -1.170314061993644901e-05 2.088195861545314932e-02 -2.636956873716472631e-03 -2.412665438122016566e-03 2.345192684897876023e-02 1.502135842243174221e-03 2.729970432725398096e-05 2.122206080091167818e-02 8.411142102386072418e-04 8.463079770592121017e-04 2.176902227233231887e-02 8.432004561517091826e-04 -8.697225207716139479e-04 1.961804668481569730e-02 1.315590112986212271e-05 6.282940506283727494e-04 2.074099164717565710e-02 7.414325196994329416e-05 -5.997019279833270189e-04 2.102801154117431987e-02 -6.488653768144131027e-04 2.830181388574547633e-05 2.125197319615527297e-02 -4.485296451132866441e-05 1.929701672938881785e-05 2.094699791943274714e-02 -1.148570576937559429e-04 -7.701510678622037979e-06 2.104699545167982438e-02 3.414710665339210159e-05 -4.570308765414084873e-05 2.094400205793740116e-02 4.514703230471270388e-05 6.729696043269119588e-05 2.094800090377577431e-02 -8.785084077335858933e-05 -7.670371519304820384e-05 2.089299752955163861e-02 -1.638536848006118512e-04 1.392973934497412436e-04 2.096699137230125659e-02 -1.048496942571879514e-04 3.529592948391613115e-05 2.086699524941183423e-02 -8.685285171685566805e-05 7.297007083051012710e-06 2.094399637929295066e-02 6.114433377095405422e-05 1.052978978132112050e-04 2.101500101649209432e-02 1.578512990399992013e-04 -1.105296821542565934e-03 -2.092697792094403916e-02 -5.051711074174613245e-04 -2.352882636938495532e-04 -2.036001725404962617e-02 4.588121179312063696e-04 -2.312831772508574797e-04 -1.994797805624319922e-02 -1.257113352639200633e-03 2.996923627294541693e-04 -2.176805545992424595e-02 1.185893298453003994e-03 2.156881105420784331e-04 -2.193295478779945518e-02 7.685258568488382658e-05 4.327032133694839675e-04 -2.092900302473132967e-02 4.298518446811757819e-04 6.307032488633782918e-04 -2.090699145748850518e-02 4.285298400239936727e-05 -2.022970718561294633e-04 -2.095099540634001722e-02 -4.051584624588310760e-04 6.757075038206540336e-04 -2.065302609763466218e-02 1.286747946166880430e-01 -3.443775443115653701e-04 -1.951775538990423511e-02 -9.530136503014490987e-03 -5.152933191403506492e-04 -2.121538078916237677e-02 -1.272229914109410456e-02 -7.772342645645044382e-04 -1.722650705925328138e-02 -2.516997419031210756e-03 4.249654062235454048e-03 -2.453916276778643143e-02 -5.242200837654473157e-04 -7.081273063707932934e-03 -1.928892096777270332e-02 -1.034141735942445579e-03 2.117702566084241934e-03 -2.103607215502889538e-02 -1.061916138725037739e-03 6.643625276033745565e-03 -2.648913745870108000e-02 -1.013142882028098641e-03 1.278702719859447926e-03 -2.102405940475863058e-02 -1.996300794551960581e-03 -4.175243017083599649e-03 -1.725102211134070182e-02 1.598502447389752161e-04 -8.296156862766338534e-06 -2.087999339255254896e-02 -4.514830713796621911e-05 2.070350742568437827e-05 -2.091500215144963259e-02 -3.154441181709116519e-06 -6.429441296007606542e-05 -2.076599923620250226e-02 9.845476607236488596e-06 -1.329438061078139372e-05 -2.076299942990016481e-02 -8.143109814010130763e-06 -5.029835047361762811e-05 -2.104399963803701978e-02 4.485026204799165612e-05 -3.829608099297943401e-05 -2.088099765011659434e-02 -1.115267607463065859e-05 -4.629501634312204925e-05 -2.080899981712908131e-02 7.285035749582728876e-05 -1.762961737919366192e-04 -2.088599455339675698e-02 -5.314737449485950509e-05 -3.629682657168883372e-05 -2.093900166906161389e-02