-4.702363308899999765e+02
-4.702363325000000032e+02
-4.702363356899999758e+02
-4.702363405400000147e+02
-4.702363471699999877e+02
-4.702363556899999821e+02
