-4.702363709699999959e+02
-4.702363720000000171e+02
-4.702363740800000187e+02
-4.702363772400000244e+02
-4.702363815599999839e+02
-4.702363871200000176e+02
