-1.412881098970000039e+03
-1.412881100679999918e+03
-1.412881103969999913e+03
-1.412881109160000051e+03
-1.412881116000000020e+03
