-1.412881328120000035e+03
-1.412881329439999945e+03
-1.412881332010000051e+03
-1.412881335990000025e+03
-1.412881341380000094e+03
