9.309260090000000432e+00 0.000000000000000000e+00 0.000000000000000000e+00 0.000000000000000000e+00 1.614158119543548509e+01 -7.825095762224251661e-17 0.000000000000000000e+00 1.007235149560473220e+00 2.163224510103914611e+01
9.309260090000000432e+00 0.000000000000000000e+00 0.000000000000000000e+00 0.000000000000000000e+00 1.614158119543548509e+01 -7.825095762224251661e-17 0.000000000000000000e+00 1.007235149560473220e+00 2.163224510103914611e+01
9.309260090000000432e+00 0.000000000000000000e+00 0.000000000000000000e+00 0.000000000000000000e+00 1.614158119543548509e+01 -7.825095762224251661e-17 0.000000000000000000e+00 1.007235149560473220e+00 2.163224510103914611e+01
9.309260090000000432e+00 0.000000000000000000e+00 0.000000000000000000e+00 0.000000000000000000e+00 1.614158119543548509e+01 -7.825095762224251661e-17 0.000000000000000000e+00 1.007235149560473220e+00 2.163224510103914611e+01
9.309260090000000432e+00 0.000000000000000000e+00 0.000000000000000000e+00 0.000000000000000000e+00 1.614158119543548509e+01 -7.825095762224251661e-17 0.000000000000000000e+00 1.007235149560473220e+00 2.163224510103914611e+01
