1.299999999999999886e-04 1.632134914084556598e+01 4.870112523589119391e+00 1.551670000000000105e+00 2.870011579918775091e+00 4.870112490706158148e+00 1.299999999999999886e-04 3.741613348248536752e+00 2.312425080907135388e+00 1.551670000000000105e+00 1.051341747369418878e+00 2.312423262540449720e+00 3.103209999999999802e+00 1.632134914084556598e+01 4.870112523589119391e+00 4.654759999999999565e+00 2.870011579918775091e+00 4.870112490706158148e+00 3.103209999999999802e+00 3.741613348248536752e+00 2.312425080907135388e+00 4.654759999999999565e+00 1.051341747369418878e+00 2.312423262540449720e+00 6.206299999999999706e+00 1.632134914084556598e+01 4.870112523589119391e+00 7.757839999999999847e+00 2.870011579918775091e+00 4.870112490706158148e+00 6.206299999999999706e+00 3.741613348248536752e+00 2.312425080907135388e+00 7.757839999999999847e+00 1.051341747369418878e+00 2.312423262540449720e+00 1.299999999999999886e-04 5.560293169975504490e+00 4.870113843959270383e+00 1.551670000000000105e+00 8.250544792499400870e+00 4.870116592553102031e+00 1.299999999999999886e-04 9.122136571651548564e+00 2.312429647867652260e+00 1.551670000000000105e+00 6.431864970772430468e+00 2.312427829500966592e+00 3.103209999999999802e+00 5.560293169975504490e+00 4.870113843959270383e+00 4.654759999999999565e+00 8.250544792499400870e+00 4.870116592553102031e+00 3.103209999999999802e+00 9.122136571651548564e+00 2.312429647867652260e+00 4.654759999999999565e+00 6.431864970772430468e+00 2.312427829500966592e+00 6.206299999999999706e+00 5.560293169975504490e+00 4.870113843959270383e+00 7.757839999999999847e+00 8.250544792499400870e+00 4.870116592553102031e+00 6.206299999999999706e+00 9.122136571651548564e+00 2.312429647867652260e+00 7.757839999999999847e+00 6.431864970772430468e+00 2.312427829500966592e+00 1.299999999999999886e-04 1.094081592826494465e+01 4.870108421742175508e+00 1.551670000000000105e+00 1.363106755078883836e+01 4.870111170336007156e+00 1.299999999999999886e-04 1.450266978423217168e+01 2.312433749714596143e+00 1.551670000000000105e+00 1.181238819417544406e+01 2.312432396461483464e+00 3.103209999999999802e+00 1.094081592826494465e+01 4.870108421742175508e+00 4.654759999999999565e+00 1.363106755078883836e+01 4.870111170336007156e+00 3.103209999999999802e+00 1.450266978423217168e+01 2.312433749714596143e+00 4.654759999999999565e+00 1.181238819417544406e+01 2.312432396461483464e+00 6.206299999999999706e+00 1.094081592826494465e+01 4.870108421742175508e+00 7.757839999999999847e+00 1.363106755078883836e+01 4.870111170336007156e+00 6.206299999999999706e+00 1.450266978423217168e+01 2.312433749714596143e+00 7.757839999999999847e+00 1.181238819417544406e+01 2.312432396461483464e+00 1.299999999999999886e-04 1.665709416403254650e+01 1.208086031788931791e+01 1.551670000000000105e+00 3.205756603105754721e+00 1.208086028500635578e+01 1.299999999999999886e-04 4.077358371435516382e+00 9.523172875207334798e+00 1.551670000000000105e+00 1.387086770556398507e+00 9.523171056840647353e+00 3.103209999999999802e+00 1.665709416403254650e+01 1.208086031788931791e+01 4.654759999999999565e+00 3.205756603105754721e+00 1.208086028500635578e+01 3.103209999999999802e+00 4.077358371435516382e+00 9.523172875207334798e+00 4.654759999999999565e+00 1.387086770556398507e+00 9.523171056840647353e+00 6.206299999999999706e+00 1.665709416403254650e+01 1.208086031788931791e+01 7.757839999999999847e+00 3.205756603105754721e+00 1.208086028500635578e+01 6.206299999999999706e+00 4.077358371435516382e+00 9.523172875207334798e+00 7.757839999999999847e+00 1.387086770556398507e+00 9.523171056840647353e+00 1.299999999999999886e-04 5.896038193162484120e+00 1.208086163825946890e+01 1.551670000000000105e+00 8.586289815686379612e+00 1.208086438685329966e+01 1.299999999999999886e-04 9.457881594838529082e+00 9.523177442167849449e+00 1.551670000000000105e+00 6.767609993959410097e+00 9.523175623801165557e+00 3.103209999999999802e+00 5.896038193162484120e+00 1.208086163825946890e+01 4.654759999999999565e+00 8.586289815686379612e+00 1.208086438685329966e+01 3.103209999999999802e+00 9.457881594838529082e+00 9.523177442167849449e+00 4.654759999999999565e+00 6.767609993959410097e+00 9.523175623801165557e+00 6.206299999999999706e+00 5.896038193162484120e+00 1.208086163825946890e+01 7.757839999999999847e+00 8.586289815686379612e+00 1.208086438685329966e+01 6.206299999999999706e+00 9.457881594838529082e+00 9.523177442167849449e+00 7.757839999999999847e+00 6.767609993959410097e+00 9.523175623801165557e+00 1.299999999999999886e-04 1.127656141656549771e+01 1.208086620521998711e+01 1.551670000000000105e+00 1.396681257397581710e+01 1.208085896463620479e+01 1.299999999999999886e-04 1.483841480741915220e+01 9.523181544014795108e+00 1.551670000000000105e+00 1.214813321736242280e+01 9.523180190761681985e+00 3.103209999999999802e+00 1.127656141656549771e+01 1.208086620521998711e+01 4.654759999999999565e+00 1.396681257397581710e+01 1.208085896463620479e+01 3.103209999999999802e+00 1.483841480741915220e+01 9.523181544014795108e+00 4.654759999999999565e+00 1.214813321736242280e+01 9.523180190761681985e+00 6.206299999999999706e+00 1.127656141656549771e+01 1.208086620521998711e+01 7.757839999999999847e+00 1.396681257397581710e+01 1.208085896463620479e+01 6.206299999999999706e+00 1.483841480741915220e+01 9.523181544014795108e+00 7.757839999999999847e+00 1.214813321736242280e+01 9.523180190761681985e+00 1.299999999999999886e-04 1.699283918721952702e+01 1.929160811218951821e+01 1.551670000000000105e+00 3.541501626292734350e+00 1.929160807930655253e+01 1.299999999999999886e-04 4.413103859736068557e+00 1.673393065868514284e+01 1.551670000000000105e+00 1.722832258856950904e+00 1.673392884031845895e+01 3.103209999999999802e+00 1.699283918721952702e+01 1.929160811218951821e+01 4.654759999999999565e+00 3.541501626292734350e+00 1.929160807930655253e+01 3.103209999999999802e+00 4.413103859736068557e+00 1.673393065868514284e+01 4.654759999999999565e+00 1.722832258856950904e+00 1.673392884031845895e+01 6.206299999999999706e+00 1.699283918721952702e+01 1.929160811218951821e+01 7.757839999999999847e+00 3.541501626292734350e+00 1.929160807930655253e+01 6.206299999999999706e+00 4.413103859736068557e+00 1.673393065868514284e+01 7.757839999999999847e+00 1.722832258856950904e+00 1.673392884031845895e+01 1.299999999999999886e-04 6.231783216349463750e+00 1.929160943255967098e+01 1.551670000000000105e+00 8.922034838873360130e+00 1.929161218115349996e+01 1.299999999999999886e-04 9.793626618025507824e+00 1.673392523646804975e+01 1.551670000000000105e+00 7.103355017146389727e+00 1.673392341810136230e+01 3.103209999999999802e+00 6.231783216349463750e+00 1.929160943255967098e+01 4.654759999999999565e+00 8.922034838873360130e+00 1.929161218115349996e+01 3.103209999999999802e+00 9.793626618025507824e+00 1.673392523646804975e+01 4.654759999999999565e+00 7.103355017146389727e+00 1.673392341810136230e+01 6.206299999999999706e+00 6.231783216349463750e+00 1.929160943255967098e+01 7.757839999999999847e+00 8.922034838873360130e+00 1.929161218115349996e+01 6.206299999999999706e+00 9.793626618025507824e+00 1.673392523646804975e+01 7.757839999999999847e+00 7.103355017146389727e+00 1.673392341810136230e+01 1.299999999999999886e-04 1.161230643975247645e+01 1.929161399952018385e+01 1.551670000000000105e+00 1.430255759716279762e+01 1.929160675893640686e+01 1.299999999999999886e-04 1.517415983060613094e+01 1.673392933831499008e+01 1.551670000000000105e+00 1.248387824054940332e+01 1.673392798506187873e+01 3.103209999999999802e+00 1.161230643975247645e+01 1.929161399952018385e+01 4.654759999999999565e+00 1.430255759716279762e+01 1.929160675893640686e+01 3.103209999999999802e+00 1.517415983060613094e+01 1.673392933831499008e+01 4.654759999999999565e+00 1.248387824054940332e+01 1.673392798506187873e+01 6.206299999999999706e+00 1.161230643975247645e+01 1.929161399952018385e+01 7.757839999999999847e+00 1.430255759716279762e+01 1.929160675893640686e+01 6.206299999999999706e+00 1.517415983060613094e+01 1.673392933831499008e+01 7.757839999999999847e+00 1.248387824054940332e+01 1.673392798506187873e+01 1.299999999999999886e-04 1.960686885378495559e+00 3.591272406098537040e+00 1.299999999999999886e-04 3.772448925241808748e+00 5.918473481856780793e+00 1.551670000000000105e+00 2.839146035392667411e+00 1.264065485097230823e+00 1.299999999999999886e-04 1.488934826416278556e-01 1.264042758148175682e+00 1.551670000000000105e+00 4.650967545208080089e+00 3.591253780996425782e+00 1.551670000000000105e+00 1.082178254589836186e+00 5.918491641845318618e+00 3.103219999999999867e+00 1.960686885378495559e+00 3.591272406098537040e+00 3.103209999999999802e+00 3.772448925241808748e+00 5.918473481856780793e+00 4.654759999999999565e+00 2.839146035392667411e+00 1.264065485097230823e+00 3.103209999999999802e+00 1.488934826416278556e-01 1.264042758148175682e+00 4.654759999999999565e+00 4.650967545208080089e+00 3.591253780996425782e+00 4.654759999999999565e+00 1.082178254589836186e+00 5.918491641845318618e+00 6.206299999999999706e+00 1.960686885378495559e+00 3.591272406098537040e+00 6.206299999999999706e+00 3.772448925241808748e+00 5.918473481856780793e+00 7.757839999999999847e+00 2.839146035392667411e+00 1.264065485097230823e+00 6.206299999999999706e+00 1.488934826416278556e-01 1.264042758148175682e+00 7.757850000000000357e+00 4.650967545208080089e+00 3.591253780996425782e+00 7.757850000000000357e+00 1.082178254589836186e+00 5.918491641845318618e+00 1.299999999999999886e-04 7.341220097959118895e+00 3.591276507945480923e+00 1.299999999999999886e-04 9.152982137822434083e+00 5.918477583703724676e+00 1.551670000000000105e+00 8.219679247973290970e+00 1.264069586944175150e+00 1.299999999999999886e-04 5.529426695222252164e+00 1.264046859995119787e+00 1.551670000000000105e+00 1.003150075778870409e+01 3.591257882843370108e+00 1.551670000000000105e+00 6.462701477992848886e+00 5.918496208805835046e+00 3.103219999999999867e+00 7.341220097959118895e+00 3.591276507945480923e+00 3.103209999999999802e+00 9.152982137822434083e+00 5.918477583703724676e+00 4.654759999999999565e+00 8.219679247973290970e+00 1.264069586944175150e+00 3.103209999999999802e+00 5.529426695222252164e+00 1.264046859995119787e+00 4.654759999999999565e+00 1.003150075778870409e+01 3.591257882843370108e+00 4.654759999999999565e+00 6.462701477992848886e+00 5.918496208805835046e+00 6.206299999999999706e+00 7.341220097959118895e+00 3.591276507945480923e+00 6.206299999999999706e+00 9.152982137822434083e+00 5.918477583703724676e+00 7.757839999999999847e+00 8.219679247973290970e+00 1.264069586944175150e+00 6.206299999999999706e+00 5.529426695222252164e+00 1.264046859995119787e+00 7.757850000000000357e+00 1.003150075778870409e+01 3.591257882843370108e+00 7.757850000000000357e+00 6.462701477992848886e+00 5.918496208805835046e+00 1.299999999999999886e-04 1.272174285624855905e+01 3.591271085728386048e+00 1.299999999999999886e-04 1.453350489611187157e+01 5.918472161486629801e+00 1.551670000000000105e+00 1.360020200626273024e+01 1.264064164727079609e+00 1.299999999999999886e-04 1.090994945351169143e+01 1.264041437778024690e+00 1.551670000000000105e+00 1.541202351607814336e+01 3.591252460626274345e+00 1.551670000000000105e+00 1.184323422545989857e+01 5.918490321475167626e+00 3.103219999999999867e+00 1.272174285624855905e+01 3.591271085728386048e+00 3.103209999999999802e+00 1.453350489611187157e+01 5.918472161486629801e+00 4.654759999999999565e+00 1.360020200626273024e+01 1.264064164727079609e+00 3.103209999999999802e+00 1.090994945351169143e+01 1.264041437778024690e+00 4.654759999999999565e+00 1.541202351607814336e+01 3.591252460626274345e+00 4.654759999999999565e+00 1.184323422545989857e+01 5.918490321475167626e+00 6.206299999999999706e+00 1.272174285624855905e+01 3.591271085728386048e+00 6.206299999999999706e+00 1.453350489611187157e+01 5.918472161486629801e+00 7.757839999999999847e+00 1.360020200626273024e+01 1.264064164727079609e+00 6.206299999999999706e+00 1.090994945351169143e+01 1.264041437778024690e+00 7.757850000000000357e+00 1.541202351607814336e+01 3.591252460626274345e+00 7.757850000000000357e+00 1.184323422545989857e+01 5.918490321475167626e+00 1.299999999999999886e-04 2.296431908565475410e+00 1.080202020039873645e+01 1.299999999999999886e-04 4.108193948428787934e+00 1.312922127615697754e+01 1.551670000000000105e+00 3.174891058579647041e+00 8.474813279397428900e+00 1.299999999999999886e-04 4.846385058286074576e-01 8.474790552448375536e+00 1.551670000000000105e+00 4.986712568395059719e+00 1.080200157529662341e+01 1.551670000000000105e+00 1.417923277776815816e+00 1.312923943614551803e+01 3.103219999999999867e+00 2.296431908565475410e+00 1.080202020039873645e+01 3.103209999999999802e+00 4.108193948428787934e+00 1.312922127615697754e+01 4.654759999999999565e+00 3.174891058579647041e+00 8.474813279397428900e+00 3.103209999999999802e+00 4.846385058286074576e-01 8.474790552448375536e+00 4.654759999999999565e+00 4.986712568395059719e+00 1.080200157529662341e+01 4.654759999999999565e+00 1.417923277776815816e+00 1.312923943614551803e+01 6.206299999999999706e+00 2.296431908565475410e+00 1.080202020039873645e+01 6.206299999999999706e+00 4.108193948428787934e+00 1.312922127615697754e+01 7.757839999999999847e+00 3.174891058579647041e+00 8.474813279397428900e+00 6.206299999999999706e+00 4.846385058286074576e-01 8.474790552448375536e+00 7.757850000000000357e+00 4.986712568395059719e+00 1.080200157529662341e+01 7.757850000000000357e+00 1.417923277776815816e+00 1.312923943614551803e+01 1.299999999999999886e-04 7.676965121146098525e+00 1.080202430224567856e+01 1.299999999999999886e-04 9.488727161009414601e+00 1.312922537800392320e+01 1.551670000000000105e+00 8.555424271160269711e+00 8.474817381244372783e+00 1.299999999999999886e-04 5.865171718409231794e+00 8.474794654295317642e+00 1.551670000000000105e+00 1.036724578097568461e+01 1.080200567714356907e+01 1.551670000000000105e+00 6.798446501179828516e+00 1.312924400310603446e+01 3.103219999999999867e+00 7.676965121146098525e+00 1.080202430224567856e+01 3.103209999999999802e+00 9.488727161009414601e+00 1.312922537800392320e+01 4.654759999999999565e+00 8.555424271160269711e+00 8.474817381244372783e+00 3.103209999999999802e+00 5.865171718409231794e+00 8.474794654295317642e+00 4.654759999999999565e+00 1.036724578097568461e+01 1.080200567714356907e+01 4.654759999999999565e+00 6.798446501179828516e+00 1.312924400310603446e+01 6.206299999999999706e+00 7.676965121146098525e+00 1.080202430224567856e+01 6.206299999999999706e+00 9.488727161009414601e+00 1.312922537800392320e+01 7.757839999999999847e+00 8.555424271160269711e+00 8.474817381244372783e+00 6.206299999999999706e+00 5.865171718409231794e+00 8.474794654295317642e+00 7.757850000000000357e+00 1.036724578097568461e+01 1.080200567714356907e+01 7.757850000000000357e+00 6.798446501179828516e+00 1.312924400310603446e+01 1.299999999999999886e-04 1.305748787943553779e+01 1.080201888002858546e+01 1.299999999999999886e-04 1.486924991929885209e+01 1.312921995578682655e+01 1.551670000000000105e+00 1.393594702944970898e+01 8.474811959027277908e+00 1.299999999999999886e-04 1.124569447669867017e+01 8.474789232078224543e+00 1.551670000000000105e+00 1.574776853926512388e+01 1.080200025492647242e+01 1.551670000000000105e+00 1.217897924864687731e+01 1.312923811577536704e+01 3.103219999999999867e+00 1.305748787943553779e+01 1.080201888002858546e+01 3.103209999999999802e+00 1.486924991929885209e+01 1.312921995578682655e+01 4.654759999999999565e+00 1.393594702944970898e+01 8.474811959027277908e+00 3.103209999999999802e+00 1.124569447669867017e+01 8.474789232078224543e+00 4.654759999999999565e+00 1.574776853926512388e+01 1.080200025492647242e+01 4.654759999999999565e+00 1.217897924864687731e+01 1.312923811577536704e+01 6.206299999999999706e+00 1.305748787943553779e+01 1.080201888002858546e+01 6.206299999999999706e+00 1.486924991929885209e+01 1.312921995578682655e+01 7.757839999999999847e+00 1.393594702944970898e+01 8.474811959027277908e+00 6.206299999999999706e+00 1.124569447669867017e+01 8.474789232078224543e+00 7.757850000000000357e+00 1.574776853926512388e+01 1.080200025492647242e+01 7.757850000000000357e+00 1.217897924864687731e+01 1.312923811577536704e+01 1.299999999999999886e-04 2.632176931752454596e+00 1.801276799469893319e+01 1.299999999999999886e-04 4.443938971615767564e+00 2.033996907045717961e+01 1.551670000000000105e+00 3.510636081766626670e+00 1.568556107369762742e+01 1.299999999999999886e-04 8.203835290155870874e-01 1.568553834674857406e+01 1.551670000000000105e+00 5.322457591582039349e+00 1.801274936959682194e+01 1.551670000000000105e+00 1.753668300963795446e+00 2.033998723044571477e+01 3.103219999999999867e+00 2.632176931752454596e+00 1.801276799469893319e+01 3.103209999999999802e+00 4.443938971615767564e+00 2.033996907045717961e+01 4.654759999999999565e+00 3.510636081766626670e+00 1.568556107369762742e+01 3.103209999999999802e+00 8.203835290155870874e-01 1.568553834674857406e+01 4.654759999999999565e+00 5.322457591582039349e+00 1.801274936959682194e+01 4.654759999999999565e+00 1.753668300963795446e+00 2.033998723044571477e+01 6.206299999999999706e+00 2.632176931752454596e+00 1.801276799469893319e+01 6.206299999999999706e+00 4.443938971615767564e+00 2.033996907045717961e+01 7.757839999999999847e+00 3.510636081766626670e+00 1.568556107369762742e+01 6.206299999999999706e+00 8.203835290155870874e-01 1.568553834674857406e+01 7.757850000000000357e+00 5.322457591582039349e+00 1.801274936959682194e+01 7.757850000000000357e+00 1.753668300963795446e+00 2.033998723044571477e+01 1.299999999999999886e-04 8.012710144333079043e+00 1.801277209654588063e+01 1.299999999999999886e-04 9.824472184196393343e+00 2.033997317230411994e+01 1.551670000000000105e+00 8.891169294347250229e+00 1.568556517554457130e+01 1.299999999999999886e-04 6.200916741596211423e+00 1.568554244859551616e+01 1.551670000000000105e+00 1.070299080416266335e+01 1.801275347144376582e+01 1.551670000000000105e+00 7.134191524366807258e+00 2.033999179740623120e+01 3.103219999999999867e+00 8.012710144333079043e+00 1.801277209654588063e+01 3.103209999999999802e+00 9.824472184196393343e+00 2.033997317230411994e+01 4.654759999999999565e+00 8.891169294347250229e+00 1.568556517554457130e+01 3.103209999999999802e+00 6.200916741596211423e+00 1.568554244859551616e+01 4.654759999999999565e+00 1.070299080416266335e+01 1.801275347144376582e+01 4.654759999999999565e+00 7.134191524366807258e+00 2.033999179740623120e+01 6.206299999999999706e+00 8.012710144333079043e+00 1.801277209654588063e+01 6.206299999999999706e+00 9.824472184196393343e+00 2.033997317230411994e+01 7.757839999999999847e+00 8.891169294347250229e+00 1.568556517554457130e+01 6.206299999999999706e+00 6.200916741596211423e+00 1.568554244859551616e+01 7.757850000000000357e+00 1.070299080416266335e+01 1.801275347144376582e+01 7.757850000000000357e+00 7.134191524366807258e+00 2.033999179740623120e+01 1.299999999999999886e-04 1.339323290262251831e+01 1.801276667432878043e+01 1.299999999999999886e-04 1.520499494248583083e+01 2.033996775008702684e+01 1.551670000000000105e+00 1.427169205263668950e+01 1.568555975332747643e+01 1.299999999999999886e-04 1.158143949988565069e+01 1.568553702637842129e+01 1.551670000000000105e+00 1.608351356245210440e+01 1.801274804922667272e+01 1.551670000000000105e+00 1.251472427183385783e+01 2.033998591007556556e+01 3.103219999999999867e+00 1.339323290262251831e+01 1.801276667432878043e+01 3.103209999999999802e+00 1.520499494248583083e+01 2.033996775008702684e+01 4.654759999999999565e+00 1.427169205263668950e+01 1.568555975332747643e+01 3.103209999999999802e+00 1.158143949988565069e+01 1.568553702637842129e+01 4.654759999999999565e+00 1.608351356245210440e+01 1.801274804922667272e+01 4.654759999999999565e+00 1.251472427183385783e+01 2.033998591007556556e+01 6.206299999999999706e+00 1.339323290262251831e+01 1.801276667432878043e+01 6.206299999999999706e+00 1.520499494248583083e+01 2.033996775008702684e+01 7.757839999999999847e+00 1.427169205263668950e+01 1.568555975332747643e+01 6.206299999999999706e+00 1.158143949988565069e+01 1.568553702637842129e+01 7.757850000000000357e+00 1.608351356245210440e+01 1.801274804922667272e+01 7.757850000000000357e+00 1.251472427183385783e+01 2.033998591007556556e+01