-2.824680371339999965e+03
-2.824646109710000019e+03
-2.824543063460000212e+03
-2.824371911780000119e+03
-2.824133563700000195e+03
