-4.600000000000000004e-05 2.004300601064947472e-03 4.582685425261664043e-05 -1.649999999999999991e-04 2.979612772028212599e-03 -5.291585100575742521e-04 9.399999999999999448e-05 -2.500009935303693955e-03 1.654579202782956106e-04 -1.340000000000000045e-04 -3.093157358782716668e-03 6.705926884542716924e-04 5.029999999999999749e-04 2.948863157480514658e-03 -3.725588254947755562e-04 -7.999999999999999638e-06 3.458107947540143765e-03 -7.446471803207824766e-04 6.809999999999999647e-04 -2.570382069436452210e-03 5.030964292455060785e-04 6.000000000000000152e-05 -2.698914077436801937e-03 1.076466563041144270e-04 -4.710000000000000102e-04 2.979497570055277510e-03 -5.101325612374646521e-04 2.049999999999999956e-04 2.982122232480664738e-03 -5.182634373989098786e-04 -6.740000000000000114e-04 -2.527962409893208702e-03 5.111321298518803043e-04 1.740000000000000010e-04 -3.028345059118056799e-03 6.435489126051347712e-04 -3.000000000000000076e-05 3.375011077078078972e-03 -2.932937599067893210e-04 -4.949999999999999973e-04 3.080463413073857102e-03 -4.057156155650906682e-04 7.200000000000000182e-05 -3.096558495532288503e-03 1.704358374307196960e-05 5.370000000000000424e-04 -2.908034146299976787e-03 6.259340252401719056e-04 4.009999999999999893e-04 2.725801096489973915e-03 -3.902030014928826855e-04 -8.100000000000000375e-05 2.037754332856272620e-03 7.630385917820058127e-05 1.160000000000000007e-04 -3.354576870496553485e-03 5.816554133931423499e-04 8.899999999999999491e-05 -3.109930085182442162e-03 2.028666194254864948e-04 -2.860000000000000129e-04 2.720131016583187279e-03 -4.259779954670353183e-04 5.689999999999999529e-04 3.100098315219603808e-03 -3.065215098040780504e-04 -1.450000000000000009e-04 -3.516496723366301352e-03 5.441459313034191503e-04 -4.889999999999999599e-04 -2.955590081561577064e-03 5.720876416903506899e-04 3.899999999999999929e-05 2.993385090316513699e-03 -5.988745286542046129e-04 -2.410000000000000033e-04 2.781536572110813836e-03 -2.896865513102445718e-04 4.100000000000000047e-05 -3.307881820911625931e-03 1.440099263328264273e-04 -6.269999999999999532e-04 -2.627526453671922765e-03 5.658221763542411109e-04 2.130000000000000003e-04 2.636569683401565004e-03 -4.361024014698508056e-04 -1.079999999999999960e-04 3.374556727707890384e-03 -8.805050528766712086e-05 -4.760000000000000234e-04 -3.205549925807873752e-03 6.217673786498725905e-04 8.299999999999999815e-05 -2.575741639725914918e-03 1.729884544761704334e-04 -1.979999999999999881e-04 2.630833065719637587e-03 -4.088060424164642235e-04 3.510000000000000208e-04 2.728895178169166331e-03 -3.022517271498552111e-04 5.450000000000000200e-04 -3.150819826469785419e-03 5.931908808511044632e-04 6.800000000000000488e-04 -2.576792025378641521e-03 5.374317239845818103e-04 -5.899999999999999754e-05 1.895658231255110916e-03 -2.664580084642669011e-04 -1.520000000000000084e-04 2.923104476911007367e-03 -7.537733194156102890e-04 6.799999999999999946e-05 -2.616664324474221679e-03 3.691040680131622495e-04 -1.069999999999999988e-04 -3.192081658615346113e-03 9.755238001871087980e-04 5.320000000000000293e-04 2.948613377969995682e-03 -7.219253058706068347e-04 -3.000000000000000076e-06 3.365129140930144414e-03 -9.355291897438298542e-04 6.920000000000000153e-04 -2.677279837781349359e-03 7.012828746015920076e-04 5.700000000000000314e-05 -2.768681563924956478e-03 4.582710961669470224e-04 -4.739999999999999747e-04 2.946476008375760545e-03 -7.248290364396575746e-04 1.949999999999999965e-04 2.933906526855116839e-03 -7.582806153904664065e-04 -6.539999999999999590e-04 -2.621894273760346471e-03 7.727841983521033980e-04 1.520000000000000084e-04 -3.036529556011543281e-03 9.622745218846537069e-04 -8.899999999999999491e-05 3.229698582450026608e-03 -3.826317636060665378e-04 -4.789999999999999879e-04 3.162452622323335284e-03 -7.088571164630134069e-04 5.300000000000000078e-05 -2.936944834961752442e-03 3.920255557887604480e-04 5.670000000000000127e-04 -2.967539845554001323e-03 8.529473987587591439e-04 4.020000000000000136e-04 2.552747155653626015e-03 -5.593370712748452125e-04 -1.699999999999999987e-05 2.153361140067804481e-03 -1.713411814068183981e-04 8.299999999999999815e-05 -3.263516444590717266e-03 9.678380111805719296e-04 8.100000000000000375e-05 -3.165300579319828451e-03 4.326907007985700054e-04 -2.249999999999999938e-04 2.626551868009617281e-03 -5.437529628932491780e-04 4.929999999999999487e-04 3.172308724385070576e-03 -5.831795239807070980e-04 -7.700000000000000139e-05 -3.401462271191623473e-03 9.292122565161956612e-04 -5.109999999999999525e-04 -2.985981173147370538e-03 9.298883984701875353e-04 2.599999999999999840e-05 3.090772362518479088e-03 -9.798164129529258679e-04 -2.979999999999999793e-04 2.921254786822501549e-03 -5.784975976325392420e-04 1.469999999999999953e-04 -3.274063107636846718e-03 5.048274628141319722e-04 -6.459999999999999814e-04 -2.546459511059136031e-03 8.663769148219872341e-04 1.700000000000000122e-04 2.679182497748681252e-03 -7.464202192847777537e-04 -7.600000000000000418e-05 3.556045595801457949e-03 -3.397642132141836624e-04 -4.970000000000000459e-04 -3.180701445966046398e-03 9.189332465579321983e-04 6.399999999999999710e-05 -2.446914842845072068e-03 4.242684903035756779e-04 -1.630000000000000047e-04 2.625894250486186191e-03 -6.868772708887566471e-04 3.959999999999999762e-04 2.936942682121235475e-03 -4.350720422349882367e-04 4.609999999999999840e-04 -3.075002208707774010e-03 9.100073716417410395e-04 7.380000000000000492e-04 -2.610972716162268843e-03 8.353439264495933665e-04 -6.299999999999999990e-05 1.824424560592465515e-03 3.117727869759802958e-05 -1.450000000000000009e-04 2.792219114400955587e-03 -3.612608713574467210e-04 9.100000000000000287e-05 -2.698792416942317248e-03 2.177601668226883424e-04 -8.700000000000000051e-05 -3.379472512548871953e-03 7.349792765286726525e-04 5.079999999999999880e-04 2.874106038720598746e-03 -3.870975047578928017e-04 -1.599999999999999928e-05 3.236310304558153925e-03 -5.631346309815320715e-04 6.909999999999999910e-04 -2.777226736620863525e-03 5.327491467831999656e-04 6.899999999999999667e-05 -2.979632147592861831e-03 1.417401320415236110e-04 -4.600000000000000139e-04 2.805803234419631653e-03 -4.780190474451117416e-04 1.959999999999999937e-04 2.821743712922615294e-03 -3.936691740302931887e-04 -6.729999999999999871e-04 -2.739010972809916011e-03 5.579990061163892911e-04 1.330000000000000073e-04 -3.343930075361105543e-03 7.243146078158776979e-04 -6.999999999999999387e-05 3.246533540943860249e-03 -6.407002049727625467e-05 -4.699999999999999859e-04 3.304942994041094612e-03 -3.791276910734453671e-04 4.000000000000000327e-05 -2.745375919382129441e-03 9.879808336564732370e-05 5.630000000000000239e-04 -2.916187201719802093e-03 6.443331471572974955e-04 3.860000000000000041e-04 2.567956369483273549e-03 -2.326909633618868417e-04 -6.999999999999999387e-05 2.324561085134614364e-03 8.697563726575936792e-05 1.689999999999999879e-04 -3.017332631645941021e-03 6.650599897788003322e-04 7.399999999999999623e-05 -3.107095045229049061e-03 2.207541164125628383e-04 -2.400000000000000061e-04 2.604546388630035823e-03 -1.993567392245294422e-04 5.360000000000000181e-04 3.326854799852908048e-03 -2.740331014597769646e-04 -1.579999999999999916e-04 -3.154071315798156767e-03 6.093596104594406655e-04 -5.029999999999999749e-04 -2.974915124943214046e-03 6.300492039389467150e-04 0.000000000000000000e+00 3.172231422407346697e-03 -7.353406031843070980e-04 -2.680000000000000090e-04 2.818722627540112824e-03 -4.155523420621763490e-04 5.099999999999999960e-05 -3.381919090054003475e-03 1.234312291452217770e-04 -6.099999999999999737e-04 -2.442079814528759323e-03 4.851094510223254511e-04 2.539999999999999940e-04 2.775995262073275693e-03 -5.376972242319312664e-04 -4.199999999999999768e-05 3.400174372218264188e-03 -2.043678999014570394e-04 -5.190000000000000386e-04 -3.255358432636643821e-03 5.840432133511104518e-04 9.899999999999999404e-05 -2.462214926548757319e-03 1.386710333144417146e-04 -2.030000000000000012e-04 2.768026099242042355e-03 -5.583489177162266484e-04 3.220000000000000206e-04 2.834499239872367501e-03 -3.562219240346775942e-04 5.699999999999999772e-04 -3.200907401442219542e-03 5.494732089851320179e-04 6.579999999999999478e-04 -2.482548149906876195e-03 4.759818099401950942e-04 -3.699999999999999811e-05 -3.830527689535427041e-04 -3.522181422107335672e-05 3.000000000000000076e-05 6.562963838828052808e-03 -7.184027188856912695e-03 -1.859999999999999945e-04 -7.246693207024700566e-03 5.722246373869448698e-03 2.000000000000000164e-05 -6.223838668696148567e-03 5.394317123236503503e-03 -3.339999999999999870e-04 -2.558316903190219270e-04 1.600723156217590426e-04 -6.390000000000000280e-04 6.479363954798005552e-03 -6.571475918031226791e-03 6.970000000000000284e-04 1.546955726187536107e-05 -5.062674123406735649e-04 -2.099999999999999884e-05 6.678742472719165560e-03 -6.782978179464908483e-03 -8.100000000000000375e-05 -6.958938354023467242e-03 5.645779749946073199e-03 -1.679999999999999907e-04 -5.938216879608117747e-03 5.401039741636533276e-03 -4.699999999999999724e-05 -1.940368212090450440e-04 6.487269934379863564e-04 2.799999999999999755e-04 6.205979609208127877e-03 -6.680878841147542581e-03 -7.709999999999999840e-04 -1.137521605887794479e-04 -2.930263571103878064e-04 5.399999999999999798e-05 6.390795115767273701e-03 -6.839646685925022951e-03 3.080000000000000055e-04 -7.264022567724450104e-03 5.737068426957262629e-03 2.799999999999999958e-05 -6.048957217029676120e-03 5.409199255577907747e-03 1.990000000000000124e-04 -3.779787253292934859e-04 1.597531946423684664e-04 3.049999999999999868e-04 6.412582457390872577e-03 -6.436223444471364692e-03 8.600000000000000331e-05 6.263328513292677757e-04 -2.654188375864631987e-04 3.000000000000000076e-05 5.902888274495300854e-03 -6.224287510938572056e-03 7.200000000000000182e-05 -6.326277805263982174e-03 5.559260214329269506e-03 3.000000000000000076e-06 -6.761096012598883168e-03 6.304290500002317915e-03 -7.320000000000000118e-04 -7.784316984387600622e-04 1.163318136441923262e-04 2.629999999999999959e-04 7.389738711055180743e-03 -6.369600205847499204e-03 -3.589999999999999984e-04 1.227338090775282871e-04 1.204218091099815472e-04 4.530000000000000064e-04 6.025411706044823783e-03 -6.129884074977111699e-03 9.000000000000000567e-05 -6.495371822210217229e-03 5.604173613588136517e-03 1.859999999999999945e-04 -6.492548848165836071e-03 6.309805975953656360e-03 -1.200000000000000030e-04 -1.030465178197881304e-03 5.084786293656879622e-04 -2.229999999999999994e-04 7.567870150062723511e-03 -6.865421938365449603e-03 1.810000000000000085e-04 1.420259089982014132e-04 -1.317484010272405761e-04 -5.079999999999999880e-04 6.181634994068371108e-03 -6.193218775411483620e-03 -1.420000000000000092e-04 -6.328931105469301141e-03 5.459275415494545432e-03 -2.570000000000000127e-04 -6.378187083398206315e-03 6.250422588047330717e-03 6.610000000000000207e-04 -7.400520684570838009e-04 1.666011283647015446e-04 -8.899999999999999491e-05 7.470830636620078187e-03 -6.498511414080829739e-03 -1.219999999999999974e-04 -3.883692824326724722e-04 4.955999399341479801e-04 -3.269999999999999795e-04 7.272464604356433139e-03 -6.480265394131849363e-03 -2.200000000000000078e-04 -6.210939301993530400e-03 5.520854099408179991e-03 -8.100000000000000375e-05 -7.153589936226486222e-03 5.614799731452506382e-03 2.010000000000000068e-04 1.748349403091957281e-04 1.388321458020296547e-05 -1.399999999999999979e-05 6.094306891800508295e-03 -6.735744168876429440e-03 2.939999999999999905e-04 -6.033928391231085757e-04 2.709394203423334796e-05 3.899999999999999929e-05 7.034848143365944780e-03 -6.272989207688844070e-03 1.299999999999999920e-05 -6.637707589972529666e-03 5.578766346605768152e-03 2.339999999999999958e-04 -7.417550349866436354e-03 5.815293871095105795e-03 1.160000000000000007e-04 5.929120629989058063e-04 -1.016871946234209397e-04 1.540000000000000028e-04 6.307340373196520383e-03 -7.040982986532860061e-03 -3.289999999999999739e-04 -4.517347734874913100e-04 1.882144904682019385e-04 2.649999999999999903e-04 7.041802667699145757e-03 -6.102127759166074347e-03 1.859999999999999945e-04 -6.294567172950293887e-03 5.573801046432904152e-03 -1.939999999999999993e-04 -7.425410769246284202e-03 5.646476769452017826e-03 -4.139999999999999800e-04 9.110047874156400230e-05 2.580420562099478227e-04 -1.399999999999999877e-04 6.309191565272327662e-03 -6.721723573064910390e-03 -1.099999999999999971e-05 -7.154010491001622533e-04 6.960275418016066131e-04 7.499999999999999343e-05 6.891806093882408245e-03 -6.485566186874149736e-03 -3.319999999999999926e-04 -6.629037101954319069e-03 6.151983428205336397e-03 -6.700000000000000226e-05 -7.297975658255939288e-03 6.405370894140618825e-03 -2.090000000000000115e-04 -1.239508645947136171e-04 6.274441673696736811e-04 -2.059999999999999928e-04 6.000119641035390507e-03 -6.006574256034910055e-03 6.890000000000000508e-04 -3.773725756973871732e-04 6.672742607890099972e-04 -3.499999999999999693e-05 6.614376762196716268e-03 -6.187339819963994306e-03 1.000000000000000082e-05 -6.203983275673027528e-03 6.186250683181969238e-03 -2.349999999999999930e-04 -7.072714646430269467e-03 6.728243123592572879e-03 -5.300000000000000078e-05 -1.799538930437247751e-05 1.097024232167997330e-03 -1.520000000000000084e-04 5.792112189919049539e-03 -6.001894482527258406e-03 -8.520000000000000013e-04 -3.144207303238159509e-04 6.002737744918049080e-04 -4.800000000000000122e-05 6.644946789836855307e-03 -6.218795716232916777e-03 3.339999999999999870e-04 -6.759408035840589780e-03 6.147041809278154696e-03 3.060000000000000111e-04 -7.159823759808060274e-03 6.383922049061060977e-03 1.100000000000000039e-04 -9.709098133416897583e-05 7.313072824357543054e-04 2.939999999999999905e-04 6.027094726268870765e-03 -5.921737089788939139e-03 -4.800000000000000122e-05 8.304012561074485422e-04 3.978074331321269745e-04 -3.800000000000000209e-05 6.839301430318862896e-03 -6.086692447071591003e-03 3.480000000000000020e-04 -6.401600820539202902e-03 6.306572360202632350e-03 1.479999999999999925e-04 -6.204043354926617841e-03 6.378461495548191224e-03 -8.140000000000000534e-04 -7.801486632896282040e-05 1.270003023867138101e-03 -6.999999999999999895e-06 7.363190839399263998e-03 -6.273261166457743017e-03 -2.919999999999999961e-04 2.416157868631146064e-04 3.301193898251327604e-04 3.510000000000000208e-04 7.090911351328242629e-03 -6.122433846731566848e-03 -2.400000000000000061e-05 -6.670593072127158248e-03 6.226997435850535959e-03 3.060000000000000111e-04 -5.741136593477315885e-03 6.150684564748519663e-03 -5.700000000000000314e-05 -5.555089712391761284e-04 1.528491669219296826e-03 3.600000000000000091e-05 7.513578679357992528e-03 -6.891925451504607274e-03 2.939999999999999905e-04 3.818671549100181709e-04 4.827613033383353069e-04 -2.809999999999999998e-04 6.994532259102758699e-03 -6.020841176810002270e-03 -3.400000000000000244e-04 -6.336686886797921782e-03 6.453712365660810128e-03 -4.560000000000000251e-04 -5.717641248677560184e-03 6.332788844689274041e-03 7.280000000000000230e-04 -1.432901267258779386e-04 1.330104108550485579e-03 -8.299999999999999815e-05 7.547060398076035209e-03 -6.301844122778061177e-03 1.019999999999999992e-04 -2.492820000241271605e-04 1.526246207026891056e-03 1.150000000000000035e-04 6.375652639993642165e-03 -5.831851714004918433e-03 -4.420000000000000101e-04 -6.351126084824935611e-03 6.659606779281812897e-03 -3.899999999999999929e-05 -6.572671795455889941e-03 7.233532295443122206e-03 2.680000000000000090e-04 -1.057055906383256964e-03 1.141400372691489312e-03 -3.000000000000000076e-06 6.616856934016025066e-03 -5.833071773496708093e-03 6.000000000000000152e-05 -2.981331439147257988e-04 1.122080936697313807e-03 -2.000000000000000164e-05 6.406574081220920563e-03 -5.339757348590693301e-03 1.410000000000000120e-04 -6.838956475253272702e-03 6.481103249416053126e-03 3.460000000000000076e-04 -7.013522260487299598e-03 7.204004893227733061e-03 -8.200000000000000095e-05 -4.624207703245779505e-04 1.119719621678759392e-03 -9.999999999999999547e-07 6.754955862585077138e-03 -5.984658995676151241e-03 -3.130000000000000187e-04 -2.736961569136293101e-04 1.087907355288450289e-03 9.999999999999999547e-07 6.293047368043762531e-03 -5.305439927428965557e-03 2.820000000000000241e-04 -6.292977826294017529e-03 6.231438844903464634e-03 -2.739999999999999923e-04 -6.993669871438783214e-03 7.006868182671158879e-03 -2.919999999999999961e-04 -9.908039074835207904e-04 1.102276560993377527e-03 -2.699999999999999899e-05 6.540874799230070487e-03 -5.723419070869873761e-03 1.299999999999999920e-05 -9.877141314853612238e-04 1.104134862443949261e-03 4.100000000000000047e-05 5.958444163208582306e-03 -5.998627272462056688e-03 -2.239999999999999966e-04 -6.872044574707930446e-03 6.329478127241399202e-03 9.299999999999999727e-05 -7.455129173425030856e-03 6.448727239350956174e-03 -3.609999999999999928e-04 -6.698451022014817284e-04 7.069204616197543450e-04 -2.599999999999999772e-04 6.754540915197402087e-03 -5.456067633829719821e-03 6.840000000000000377e-04 -6.978262145709266968e-04 9.444789961971684911e-04 -5.000000000000000409e-06 5.753847111057093511e-03 -5.619701097263085990e-03 -9.999999999999999547e-07 -6.567077715820398773e-03 6.214168912604092071e-03 -2.530000000000000239e-04 -7.250213651147365337e-03 6.399142677946505382e-03 -2.500000000000000120e-05 -6.113682601950171623e-04 1.274815222071856886e-03 -5.300000000000000078e-05 6.552108368432776539e-03 -5.460657188316547089e-03 -7.860000000000000233e-04 -6.930176711940268805e-04 9.402507683659756680e-04 -4.800000000000000122e-05 5.796215953562026610e-03 -5.698757287310368680e-03 3.649999999999999816e-04 -6.824816371787787231e-03 6.333285600016580821e-03 1.269999999999999970e-04 -7.332982138414758863e-03 6.449046360330347102e-03 2.239999999999999966e-04 -6.961382378126333096e-04 7.872303054730054889e-04 2.559999999999999884e-04 6.737858407818500539e-03 -5.513353704977537635e-03 -4.199999999999999768e-05 1.009130233384830135e-03 2.373208209759062465e-04 -4.699999999999999724e-05 6.719472853797687703e-03 -5.714716490524788216e-03 6.600000000000000506e-05 -5.762984014354505073e-03 5.939472135661083389e-03 3.800000000000000209e-05 -6.753436708531759987e-03 6.167786525477004546e-03 -7.919999999999999523e-04 1.501912306079127967e-04 5.596200445377924387e-04 1.800000000000000046e-05 7.499718495170258799e-03 -5.792090511482114214e-03 -3.330000000000000169e-04 5.263803451022920242e-04 3.829317593122721669e-04 2.939999999999999905e-04 6.955844272344274826e-03 -5.733731024289100836e-03 1.000000000000000082e-05 -5.862111582340376152e-03 5.896035684779290555e-03 1.450000000000000009e-04 -6.339118394419436704e-03 6.143489723400953964e-03 -3.600000000000000091e-05 -9.102447847026795113e-05 7.970963206032353251e-04 -1.999999999999999909e-06 7.619265850707254706e-03 -6.213106461042354825e-03 2.919999999999999961e-04 5.297957006013920105e-04 3.917824850912558711e-04 -2.400000000000000061e-04 6.967064924503879077e-03 -5.729248060413141656e-03 -1.849999999999999973e-04 -5.734088395576346885e-03 5.872055199988899729e-03 -1.530000000000000056e-04 -6.273092493784536774e-03 6.228510782235517282e-03 6.949999999999999798e-04 1.520273528001042890e-04 5.775540528821459076e-04 -4.199999999999999768e-05 7.536423716289956595e-03 -5.777782236164865845e-03 -3.499999999999999693e-05 -3.682951008003532362e-04 8.822538595244349682e-05 -2.900000000000000017e-05 7.422121179641828596e-03 -6.856633444680574480e-03 -1.769999999999999926e-04 -6.833489012646513927e-03 5.717022031970784950e-03 -9.000000000000000228e-06 -5.975886573040749966e-03 6.075521760816208171e-03 2.849999999999999886e-04 -5.082702043973241638e-04 3.500191413650149334e-04 -1.299999999999999920e-05 5.910065242265519214e-03 -6.715152554645724588e-03 2.069999999999999900e-04 -4.907427323594543969e-04 -3.485521060564358430e-04 -6.899999999999999667e-05 7.375521305611970960e-03 -6.373943635651626791e-03 -6.700000000000000226e-05 -7.259980385322366107e-03 5.737881299289355683e-03 2.359999999999999902e-04 -6.210740990374536037e-03 6.234617337935145602e-03 -4.399999999999999886e-05 -5.927098962712173247e-05 2.750544487708236159e-04 3.499999999999999693e-05 6.118425408675428820e-03 -7.099259364079812430e-03 -3.299999999999999982e-04 -4.995934581384381011e-04 -3.451367505573358025e-04 6.999999999999999387e-05 7.286963230783823076e-03 -6.426881971314283952e-03 1.589999999999999888e-04 -6.888128242110564542e-03 5.704549878845728561e-03 -2.770000000000000110e-04 -6.284547855571044270e-03 6.175986743107321833e-03 -3.860000000000000041e-04 -5.689007875880682267e-04 3.808725428298497364e-04 -4.899999999999999842e-05 5.926978153590290073e-03 -6.695918381138125756e-03