-5.040686607390454377e+00 5.052728594317118559e-04 3.826855708746148459e-04 5.052728594317118559e-04 -4.929871880441702103e+01 -3.981701481508066109e+01 3.826855708746148459e-04 -3.981701481508066820e+01 5.091608677517945836e+01
-4.235431398283847848e+00 7.761354888601061652e-02 -4.565676022875493623e-02 7.761354888601061652e-02 -4.866353995882069938e+01 -3.956795607187287800e+01 -4.565676022875493623e-02 -3.956795607187287800e+01 5.130308903175519930e+01
-4.194448391924680664e+00 1.618873233421109503e-01 -9.091276127608012569e-02 1.618873233421109503e-01 -4.881328964036529072e+01 -3.931216088749101800e+01 -9.091276127608012569e-02 -3.931216088749102511e+01 5.086743095810798820e+01
-2.887617993109496073e+00 2.715692199515234440e-01 -1.213470577433905934e-01 2.715692199515234440e-01 -4.766563310201945569e+01 -3.905571957713256381e+01 -1.213470577433905934e-01 -3.905571957713257092e+01 5.184608234820760941e+01
-1.868804801361012125e+00 3.880506398657898037e-01 -1.462078785040450135e-01 3.880506398657898037e-01 -4.679008553962358974e+01 -3.880479939264084521e+01 -1.462078785040450135e-01 -3.880479939264084521e+01 5.243648880783233324e+01
