3.323539999999999939e+00 2.805959999999999788e+00 3.670339999999999936e+00 9.537600000000000522e-01 3.063229999999999897e+00 1.742429999999999923e+00 2.541139999999999954e+00 1.047840000000000105e+00 1.742459999999999898e+00 7.171929999999999694e+00 2.805959999999999788e+00 3.670339999999999936e+00 4.802139999999999631e+00 3.063229999999999897e+00 1.742439999999999989e+00 6.389520000000000088e+00 1.047819999999999974e+00 1.742459999999999898e+00 1.102028999999999925e+01 2.805959999999999788e+00 3.670339999999999936e+00 8.650520000000000209e+00 3.063219999999999832e+00 1.742420000000000080e+00 1.023790999999999940e+01 1.047819999999999974e+00 1.742459999999999898e+00 1.736180000000000057e+00 4.821380000000000443e+00 3.670339999999999936e+00 3.997209999999999930e+00 6.836789999999999701e+00 3.670350000000000001e+00 3.214799999999999880e+00 5.078640000000000043e+00 1.742459999999999898e+00 5.584570000000000256e+00 4.821380000000000443e+00 3.670339999999999936e+00 7.845579999999999998e+00 6.836789999999999701e+00 3.670329999999999870e+00 7.063189999999999635e+00 5.078640000000000043e+00 1.742469999999999963e+00 9.432940000000000325e+00 4.821380000000000443e+00 3.670339999999999936e+00 1.169396000000000058e+01 6.836780000000000079e+00 3.670339999999999936e+00 1.091155999999999970e+01 5.078640000000000043e+00 1.742480000000000029e+00 2.526800000000000157e+00 4.234440000000000204e+00 7.176560000000000272e+00 4.114180000000000170e+00 2.219059999999999810e+00 7.176580000000000403e+00 6.375169999999999781e+00 4.234460000000000335e+00 7.176549999999999763e+00 7.962550000000000239e+00 2.219069999999999876e+00 7.176580000000000403e+00 1.022356000000000087e+01 4.234449999999999825e+00 7.176549999999999763e+00 1.181094000000000044e+01 2.219059999999999810e+00 7.176580000000000403e+00 4.787819999999999965e+00 6.249880000000000102e+00 7.176590000000000025e+00 8.636210000000000164e+00 6.249889999999999723e+00 7.176590000000000025e+00 1.248460000000000036e+01 6.249889999999999723e+00 7.176590000000000025e+00 4.896569999999999645e+00 3.977189999999999781e+00 9.104459999999999553e+00 8.744960000000000733e+00 3.977189999999999781e+00 9.104459999999999553e+00 1.259334999999999916e+01 3.977189999999999781e+00 9.104459999999999553e+00 3.309210000000000207e+00 5.992600000000000371e+00 9.104469999999999175e+00 5.570229999999999571e+00 8.008010000000000517e+00 9.104449999999999932e+00 7.157600000000000406e+00 5.992609999999999992e+00 9.104469999999999175e+00 9.418620000000000658e+00 8.008020000000000138e+00 9.104449999999999932e+00 1.100597999999999921e+01 5.992609999999999992e+00 9.104449999999999932e+00 1.326699999999999946e+01 8.008010000000000517e+00 9.104459999999999553e+00 6.469619999999999926e+00 5.148419999999999774e+00 1.453857999999999961e+01 4.099829999999999863e+00 5.405689999999999884e+00 1.261067000000000071e+01 5.687199999999999811e+00 3.390280000000000182e+00 1.261070999999999920e+01 1.031799999999999962e+01 5.148419999999999774e+00 1.453856999999999999e+01 7.948210000000000441e+00 5.405680000000000263e+00 1.261065999999999931e+01 9.535600000000000520e+00 3.390299999999999869e+00 1.261070999999999920e+01 1.416638000000000019e+01 5.148419999999999774e+00 1.453857999999999961e+01 1.179659000000000013e+01 5.405680000000000263e+00 1.261067000000000071e+01 1.338396999999999970e+01 3.390280000000000182e+00 1.261069999999999958e+01 4.882249999999999979e+00 7.163850000000000051e+00 1.453858999999999924e+01 7.143270000000000231e+00 9.179249999999999687e+00 1.453856999999999999e+01 6.360870000000000246e+00 7.421109999999999651e+00 1.261069999999999958e+01 8.730639999999999290e+00 7.163850000000000051e+00 1.453858999999999924e+01 1.099164999999999992e+01 9.179249999999999687e+00 1.453856999999999999e+01 1.020925000000000082e+01 7.421120000000000161e+00 1.261069999999999958e+01 1.257901999999999987e+01 7.163850000000000051e+00 1.453856999999999999e+01 1.484003000000000050e+01 9.179240000000000066e+00 1.453856999999999999e+01 1.405763999999999925e+01 7.421120000000000161e+00 1.261070999999999920e+01 3.083509999999999973e+00 1.288302000000000014e+01 3.670350000000000001e+00 6.931890000000000107e+00 1.288302000000000014e+01 3.670350000000000001e+00 1.078026999999999980e+01 1.288302999999999976e+01 3.670350000000000001e+00 1.627410000000000023e+00 7.094050000000000189e+00 1.742429999999999923e+00 5.475810000000000066e+00 7.094039999999999679e+00 1.742439999999999989e+00 9.324189999999999756e+00 7.094039999999999679e+00 1.742429999999999923e+00 2.409839999999999982e+00 8.852199999999999847e+00 3.670350000000000001e+00 4.670869999999999855e+00 1.086761000000000088e+01 3.670339999999999936e+00 2.301079999999999792e+00 1.112486999999999959e+01 1.742429999999999923e+00 3.888459999999999805e+00 9.109479999999999578e+00 1.742469999999999963e+00 6.258219999999999672e+00 8.852199999999999847e+00 3.670339999999999936e+00 8.519249999999999545e+00 1.086761000000000088e+01 3.670350000000000001e+00 6.149460000000000370e+00 1.112485999999999997e+01 1.742420000000000080e+00 7.736839999999999939e+00 9.109479999999999578e+00 1.742480000000000029e+00 1.010660999999999987e+01 8.852209999999999468e+00 3.670350000000000001e+00 1.236763000000000012e+01 1.086759999999999948e+01 3.670350000000000001e+00 9.997840000000000060e+00 1.112485000000000035e+01 1.742429999999999923e+00 1.158522999999999925e+01 9.109460000000000335e+00 1.742459999999999898e+00 3.200460000000000083e+00 8.265280000000000626e+00 7.176549999999999763e+00 7.048829999999999707e+00 8.265269999999999229e+00 7.176549999999999763e+00 1.089720999999999940e+01 8.265280000000000626e+00 7.176560000000000272e+00 3.874109999999999943e+00 1.229609999999999914e+01 7.176549999999999763e+00 5.461500000000000021e+00 1.028068999999999988e+01 7.176580000000000403e+00 7.722489999999999633e+00 1.229608999999999952e+01 7.176549999999999763e+00 9.309879999999999711e+00 1.028069999999999951e+01 7.176580000000000403e+00 1.157088000000000072e+01 1.229608999999999952e+01 7.176560000000000272e+00 1.315826999999999991e+01 1.028069999999999951e+01 7.176580000000000403e+00 4.656539999999999679e+00 1.405424999999999969e+01 9.104459999999999553e+00 8.504929999999999879e+00 1.405425999999999931e+01 9.104459999999999553e+00 1.235330000000000084e+01 1.405424999999999969e+01 9.104459999999999553e+00 3.982880000000000198e+00 1.002344000000000079e+01 9.104469999999999175e+00 6.243909999999999627e+00 1.203885000000000005e+01 9.104469999999999175e+00 7.831260000000000332e+00 1.002344000000000079e+01 9.104469999999999175e+00 1.009226999999999919e+01 1.203883000000000081e+01 9.104459999999999553e+00 1.167963999999999913e+01 1.002342999999999940e+01 9.104449999999999932e+00 1.394064999999999976e+01 1.203883000000000081e+01 9.104459999999999553e+00 6.229580000000000339e+00 1.522547999999999924e+01 1.453858999999999924e+01 1.007794999999999952e+01 1.522547999999999924e+01 1.453857999999999961e+01 1.392633999999999972e+01 1.522546999999999962e+01 1.453856999999999999e+01 4.773480000000000167e+00 9.436510000000000176e+00 1.261068000000000033e+01 8.621869999999999479e+00 9.436510000000000176e+00 1.261067000000000071e+01 1.247025000000000006e+01 9.436510000000000176e+00 1.261067000000000071e+01 5.555909999999999904e+00 1.119467000000000034e+01 1.453857999999999961e+01 7.816939999999999777e+00 1.321006999999999998e+01 1.453856999999999999e+01 5.447140000000000093e+00 1.346732000000000085e+01 1.261067000000000071e+01 7.034519999999999662e+00 1.145193000000000083e+01 1.261069999999999958e+01 9.404289999999999594e+00 1.119466000000000072e+01 1.453858999999999924e+01 1.166530999999999985e+01 1.321006000000000036e+01 1.453857999999999961e+01 9.295529999999999404e+00 1.346732000000000085e+01 1.261067000000000071e+01 1.088292000000000037e+01 1.145193000000000083e+01 1.261069999999999958e+01 1.325267999999999979e+01 1.119466000000000072e+01 1.453858999999999924e+01 1.551370000000000005e+01 1.321006999999999998e+01 1.453856999999999999e+01 1.314391999999999960e+01 1.346732000000000085e+01 1.261067000000000071e+01 1.473129999999999917e+01 1.145193000000000083e+01 1.261068999999999996e+01 1.008089999999999931e+00 1.926889999999999992e+00 2.706379999999999786e+00 1.740760000000000085e+00 3.648519999999999985e+00 4.461890000000000356e+00 2.536599999999999966e+00 2.220689999999999831e+00 9.510100000000000220e-01 2.755900000000000016e-01 2.052499999999999880e-01 9.509999999999999565e-01 3.269149999999999778e+00 3.942320000000000046e+00 2.706440000000000179e+00 3.328129999999999811e+00 1.633119999999999905e+00 4.461949999999999861e+00 4.856480000000000352e+00 1.926889999999999992e+00 2.706379999999999786e+00 5.589129999999999932e+00 3.648519999999999985e+00 4.461909999999999599e+00 6.384970000000000034e+00 2.220689999999999831e+00 9.510199999999999765e-01 4.123969999999999914e+00 2.052700000000000080e-01 9.510100000000000220e-01 7.117530000000000356e+00 3.942309999999999981e+00 2.706459999999999866e+00 7.176510000000000389e+00 1.633129999999999971e+00 4.461949999999999861e+00 8.704850000000000421e+00 1.926900000000000057e+00 2.706379999999999786e+00 9.437519999999999243e+00 3.648509999999999920e+00 4.461899999999999977e+00 1.023337000000000074e+01 2.220699999999999896e+00 9.510199999999999765e-01 7.972349999999999604e+00 2.052700000000000080e-01 9.510100000000000220e-01 1.096590999999999916e+01 3.942320000000000046e+00 2.706449999999999800e+00 1.102488999999999919e+01 1.633119999999999905e+00 4.461949999999999861e+00 1.681759999999999922e+00 5.957709999999999617e+00 2.706389999999999851e+00 9.492500000000000382e-01 4.236080000000000290e+00 9.509900000000000020e-01 4.001800000000000246e+00 5.663940000000000197e+00 4.461960000000000370e+00 5.530129999999999768e+00 5.957720000000000127e+00 2.706379999999999786e+00 4.797620000000000218e+00 4.236069999999999780e+00 9.510100000000000220e-01 7.850170000000000314e+00 5.663940000000000197e+00 4.461949999999999861e+00 9.378500000000000725e+00 5.957729999999999748e+00 2.706389999999999851e+00 8.646010000000000417e+00 4.236089999999999911e+00 9.510100000000000220e-01 1.169856000000000051e+01 5.663949999999999818e+00 4.461949999999999861e+00 2.581119999999999859e+00 3.098120000000000207e+00 8.140489999999999782e+00 4.109630000000000116e+00 3.391919999999999824e+00 6.385119999999999685e+00 1.848629999999999995e+00 1.376479999999999926e+00 6.385119999999999685e+00 4.842170000000000307e+00 5.113550000000000040e+00 8.140570000000000306e+00 6.429509999999999614e+00 3.098120000000000207e+00 8.140510000000000801e+00 7.958009999999999806e+00 3.391929999999999890e+00 6.385130000000000194e+00 5.697009999999999685e+00 1.376489999999999991e+00 6.385119999999999685e+00 8.690559999999999619e+00 5.113550000000000040e+00 8.140570000000000306e+00 1.027787999999999968e+01 3.098129999999999828e+00 8.140499999999999403e+00 1.180639000000000038e+01 3.391919999999999824e+00 6.385130000000000194e+00 9.545400000000000773e+00 1.376489999999999991e+00 6.385119999999999685e+00 1.253894000000000020e+01 5.113559999999999661e+00 8.140560000000000684e+00 3.254779999999999784e+00 7.128949999999999676e+00 8.140499999999999403e+00 2.522279999999999855e+00 5.407309999999999839e+00 6.385130000000000194e+00 7.103170000000000428e+00 7.128949999999999676e+00 8.140489999999999782e+00 6.370659999999999989e+00 5.407300000000000217e+00 6.385110000000000063e+00 1.095154999999999923e+01 7.128960000000000186e+00 8.140499999999999403e+00 1.021906000000000070e+01 5.407309999999999839e+00 6.385119999999999685e+00 3.313790000000000013e+00 4.819740000000000357e+00 9.896020000000000039e+00 4.901159999999999961e+00 2.804339999999999833e+00 9.896069999999999922e+00 7.162169999999999703e+00 4.819740000000000357e+00 9.896029999999999660e+00 8.749539999999999651e+00 2.804359999999999964e+00 9.896060000000000301e+00 1.101055000000000028e+01 4.819749999999999979e+00 9.896020000000000039e+00 1.259792999999999985e+01 2.804349999999999898e+00 9.896069999999999922e+00 5.574830000000000396e+00 6.835180000000000256e+00 9.896060000000000301e+00 9.423209999999999198e+00 6.835169999999999746e+00 9.896079999999999544e+00 1.327158999999999978e+01 6.835180000000000256e+00 9.896060000000000301e+00 4.154149999999999565e+00 4.269359999999999822e+00 1.357460999999999984e+01 4.886829999999999785e+00 5.990960000000000285e+00 1.533013000000000048e+01 5.682649999999999757e+00 4.563159999999999883e+00 1.181925000000000026e+01 3.421660000000000146e+00 2.547709999999999919e+00 1.181922999999999924e+01 6.415210000000000079e+00 6.284779999999999589e+00 1.357469000000000037e+01 6.474199999999999733e+00 3.975589999999999957e+00 1.533018999999999998e+01 8.002549999999999386e+00 4.269359999999999822e+00 1.357461999999999946e+01 8.735200000000000742e+00 5.990969999999999906e+00 1.533014000000000010e+01 9.531050000000000466e+00 4.563159999999999883e+00 1.181924000000000063e+01 7.270039999999999836e+00 2.547719999999999985e+00 1.181924000000000063e+01 1.026360000000000028e+01 6.284779999999999589e+00 1.357468000000000075e+01 1.032257000000000069e+01 3.975579999999999892e+00 1.533018000000000036e+01 1.185092999999999996e+01 4.269359999999999822e+00 1.357460999999999984e+01 1.258358999999999916e+01 5.990969999999999906e+00 1.533014000000000010e+01 1.337941999999999965e+01 4.563159999999999883e+00 1.181925000000000026e+01 1.111842000000000041e+01 2.547719999999999985e+00 1.181925000000000026e+01 1.411198000000000086e+01 6.284779999999999589e+00 1.357468000000000075e+01 1.417095999999999911e+01 3.975579999999999892e+00 1.533018999999999998e+01 4.827810000000000379e+00 8.300179999999999225e+00 1.357461999999999946e+01 4.095329999999999693e+00 6.578529999999999767e+00 1.181924000000000063e+01 7.147870000000000168e+00 8.006410000000000693e+00 1.533018000000000036e+01 8.676209999999999312e+00 8.300179999999999225e+00 1.357460999999999984e+01 7.943710000000000271e+00 6.578529999999999767e+00 1.181924000000000063e+01 1.099623000000000062e+01 8.006410000000000693e+00 1.533018999999999998e+01 1.252458000000000027e+01 8.300169999999999604e+00 1.357461999999999946e+01 1.179208000000000034e+01 6.578529999999999767e+00 1.181924000000000063e+01 1.484462000000000081e+01 8.006410000000000693e+00 1.533018999999999998e+01 2.414410000000000167e+00 7.679319999999999702e+00 4.461899999999999977e+00 3.210249999999999826e+00 6.251529999999999809e+00 9.510100000000000220e-01 3.942790000000000017e+00 7.973139999999999894e+00 2.706449999999999800e+00 6.262800000000000367e+00 7.679330000000000211e+00 4.461909999999999599e+00 7.058650000000000091e+00 6.251520000000000188e+00 9.510100000000000220e-01 7.791190000000000282e+00 7.973139999999999894e+00 2.706449999999999800e+00 1.011116999999999955e+01 7.679330000000000211e+00 4.461899999999999977e+00 1.090703000000000067e+01 6.251520000000000188e+00 9.510199999999999765e-01 1.163957000000000086e+01 7.973150000000000404e+00 2.706440000000000179e+00 2.355420000000000069e+00 9.988550000000000040e+00 2.706379999999999786e+00 3.088080000000000158e+00 1.171016000000000012e+01 4.461890000000000356e+00 3.883919999999999817e+00 1.028232999999999997e+01 9.510100000000000220e-01 1.622919999999999918e+00 8.266909999999999314e+00 9.510100000000000220e-01 4.616480000000000139e+00 1.200395999999999930e+01 2.706449999999999800e+00 4.675460000000000171e+00 9.694770000000000110e+00 4.461960000000000370e+00 6.203789999999999694e+00 9.988540000000000418e+00 2.706379999999999786e+00 6.936460000000000292e+00 1.171015000000000050e+01 4.461890000000000356e+00 7.732300000000000395e+00 1.028232999999999997e+01 9.510199999999999765e-01 5.471300000000000274e+00 8.266899999999999693e+00 9.509999999999999565e-01 8.464850000000000207e+00 1.200397000000000070e+01 2.706449999999999800e+00 8.523839999999999861e+00 9.694779999999999731e+00 4.461960000000000370e+00 1.005217000000000027e+01 9.988540000000000418e+00 2.706379999999999786e+00 1.078484000000000087e+01 1.171015000000000050e+01 4.461909999999999599e+00 1.158069000000000059e+01 1.028233999999999959e+01 9.510199999999999765e-01 9.319670000000000343e+00 8.266909999999999314e+00 9.509999999999999565e-01 1.231323000000000079e+01 1.200394999999999968e+01 2.706449999999999800e+00 1.237221000000000082e+01 9.694770000000000110e+00 4.461940000000000239e+00 4.783290000000000042e+00 7.422749999999999737e+00 6.385139999999999816e+00 5.515839999999999854e+00 9.144370000000000331e+00 8.140560000000000684e+00 8.631669999999999732e+00 7.422740000000000116e+00 6.385139999999999816e+00 9.364219999999999544e+00 9.144379999999999953e+00 8.140560000000000684e+00 1.248005000000000031e+01 7.422749999999999737e+00 6.385139999999999816e+00 1.321260000000000012e+01 9.144360000000000710e+00 8.140560000000000684e+00 3.928440000000000154e+00 1.115976000000000035e+01 8.140499999999999403e+00 5.456949999999999967e+00 1.145356999999999914e+01 6.385130000000000194e+00 3.195939999999999781e+00 9.438129999999999242e+00 6.385110000000000063e+00 6.189499999999999780e+00 1.317519000000000062e+01 8.140570000000000306e+00 7.776830000000000354e+00 1.115976999999999997e+01 8.140510000000000801e+00 9.305329999999999657e+00 1.145356999999999914e+01 6.385130000000000194e+00 7.044319999999999915e+00 9.438140000000000640e+00 6.385119999999999685e+00 1.003789000000000087e+01 1.317520000000000024e+01 8.140570000000000306e+00 1.162519999999999953e+01 1.115976999999999997e+01 8.140499999999999403e+00 1.315371000000000024e+01 1.145355999999999952e+01 6.385119999999999685e+00 1.089270999999999923e+01 9.438119999999999621e+00 6.385119999999999685e+00 1.388626000000000005e+01 1.317519000000000062e+01 8.140560000000000684e+00 3.987439999999999873e+00 8.850569999999999382e+00 9.896029999999999660e+00 7.835820000000000007e+00 8.850569999999999382e+00 9.896020000000000039e+00 1.168421000000000021e+01 8.850569999999999382e+00 9.896020000000000039e+00 4.661109999999999864e+00 1.288138999999999967e+01 9.896010000000000417e+00 6.248479999999999812e+00 1.086599000000000004e+01 9.896079999999999544e+00 8.509499999999999176e+00 1.288138000000000005e+01 9.896010000000000417e+00 1.009686999999999912e+01 1.086599999999999966e+01 9.896069999999999922e+00 1.235787000000000013e+01 1.288138999999999967e+01 9.896020000000000039e+00 1.394524000000000008e+01 1.086599999999999966e+01 9.896060000000000301e+00 5.560480000000000089e+00 1.002180000000000071e+01 1.533014000000000010e+01 6.356320000000000192e+00 8.593980000000000175e+00 1.181925999999999988e+01 7.088870000000000005e+00 1.031559999999999988e+01 1.357469000000000037e+01 9.408860000000000667e+00 1.002178999999999931e+01 1.533014000000000010e+01 1.020470000000000077e+01 8.593980000000000175e+00 1.181925000000000026e+01 1.093723999999999918e+01 1.031559999999999988e+01 1.357469000000000037e+01 1.325723999999999947e+01 1.002178999999999931e+01 1.533014999999999972e+01 1.405310000000000059e+01 8.593980000000000175e+00 1.181925999999999988e+01 1.478562999999999938e+01 1.031560999999999950e+01 1.357466999999999935e+01 5.501470000000000304e+00 1.233099999999999952e+01 1.357461999999999946e+01 6.234140000000000015e+00 1.405261999999999922e+01 1.533013000000000048e+01 7.029989999999999739e+00 1.262479000000000084e+01 1.181925000000000026e+01 4.768979999999999997e+00 1.060934999999999917e+01 1.181924000000000063e+01 7.762540000000000440e+00 1.434642000000000017e+01 1.357468000000000075e+01 7.821509999999999962e+00 1.203722999999999921e+01 1.533018000000000036e+01 9.349859999999999616e+00 1.233099999999999952e+01 1.357461999999999946e+01 1.008253000000000021e+01 1.405260999999999960e+01 1.533013000000000048e+01 1.087837000000000032e+01 1.262480000000000047e+01 1.181924000000000063e+01 8.617369999999999308e+00 1.060934999999999917e+01 1.181924000000000063e+01 1.161092000000000013e+01 1.434642999999999979e+01 1.357469000000000037e+01 1.166990000000000016e+01 1.203721999999999959e+01 1.533019999999999960e+01 1.319824999999999982e+01 1.233099999999999952e+01 1.357460999999999984e+01 1.393089999999999939e+01 1.405261999999999922e+01 1.533013000000000048e+01 1.472674999999999912e+01 1.262480000000000047e+01 1.181925000000000026e+01 1.246574000000000026e+01 1.060934999999999917e+01 1.181922999999999924e+01 1.545928999999999931e+01 1.434642000000000017e+01 1.357468000000000075e+01 1.551828000000000074e+01 1.203722999999999921e+01 1.533018999999999998e+01