-1.437093328129999918e+03
-1.438288055420000092e+03
-1.442102661279999893e+03
-1.448428070949999892e+03
-1.457082466939999904e+03
-1.467822858009999891e+03
-1.480356102969999938e+03
-1.494356728310000108e+03
-1.509484640480000053e+03
-1.525403793019999966e+03
