1.373990999999999962e+00 6.931919999999999860e+00 -1.255776999999999921e+00 -1.375588000000000033e+00 -6.938556000000000168e+00 1.259095999999999993e+00 -1.374549999999999939e+00 -6.940014999999999823e+00 1.259568999999999939e+00 1.374241000000000046e+00 6.932957000000000036e+00 -1.256658000000000053e+00 -1.375291000000000041e+00 -6.939206999999999681e+00 1.259519999999999973e+00 -1.374100000000000099e+00 -6.938704000000000427e+00 1.257865999999999929e+00 1.374060999999999977e+00 6.932220000000000049e+00 -1.256156999999999968e+00 -1.375750999999999946e+00 -6.938276000000000110e+00 1.258434000000000053e+00 -1.374444999999999917e+00 -6.938481000000000343e+00 1.257991000000000081e+00 1.374049999999999994e+00 6.934365999999999808e+00 -1.255236999999999936e+00 1.374112999999999918e+00 6.931675000000000253e+00 -1.255290000000000017e+00 -1.374058999999999919e+00 -6.937310000000000088e+00 1.257447999999999899e+00 1.374643000000000059e+00 6.935913000000000217e+00 -1.256645999999999930e+00 1.374014999999999986e+00 6.931085999999999636e+00 -1.255371999999999932e+00 -1.374278000000000111e+00 -6.938181000000000154e+00 1.258118000000000070e+00 1.374190999999999940e+00 6.934794000000000125e+00 -1.256237000000000048e+00 1.373963000000000045e+00 6.933659999999999712e+00 -1.257349999999999968e+00 -1.374767999999999990e+00 -6.937765999999999877e+00 1.258100999999999914e+00 -1.375207000000000068e+00 -6.936366999999999727e+00 1.257033000000000067e+00 -1.374081000000000108e+00 -6.937617000000000367e+00 1.257859000000000060e+00 -1.375362999999999891e+00 -6.938799999999999635e+00 1.259257999999999988e+00 -1.374068000000000067e+00 -6.938272999999999691e+00 1.258088000000000095e+00 -1.375607999999999942e+00 -6.937609000000000137e+00 1.257659000000000082e+00 -1.374135000000000106e+00 -6.938774999999999693e+00 1.258394999999999930e+00 -1.374293999999999905e+00 -6.938181000000000154e+00 1.257762999999999964e+00 -1.373884000000000105e+00 -6.938882999999999690e+00 1.258219999999999894e+00 -1.374014000000000069e+00 -6.938220000000000276e+00 1.257983000000000073e+00 1.374487999999999932e+00 6.931100999999999956e+00 -1.255532000000000092e+00 1.373747999999999969e+00 6.932746999999999993e+00 -1.256223000000000090e+00 1.373866000000000032e+00 6.932426000000000421e+00 -1.256191000000000058e+00 1.374087000000000058e+00 6.936150999999999733e+00 -1.257030000000000092e+00 1.373761000000000010e+00 6.932155999999999985e+00 -1.256367000000000012e+00 1.374138999999999999e+00 6.934631999999999685e+00 -1.255414000000000030e+00 1.373974999999999946e+00 6.931383000000000294e+00 -1.255730999999999931e+00 1.374057000000000084e+00 6.934692000000000078e+00 -1.255787999999999904e+00 1.374033999999999978e+00 6.932972000000000357e+00 -1.256720000000000059e+00 1.374106999999999967e+00 6.931991000000000014e+00 -1.256375000000000020e+00 -1.375353999999999965e+00 -6.938869000000000398e+00 1.259023000000000003e+00 -1.374039000000000010e+00 -6.937935000000000407e+00 1.257346999999999992e+00 1.374419999999999975e+00 6.932374000000000258e+00 -1.256218000000000057e+00 -1.375726000000000004e+00 -6.939083000000000112e+00 1.258539999999999992e+00 -1.374217000000000022e+00 -6.937794000000000239e+00 1.257781999999999956e+00 1.374190000000000023e+00 6.932764999999999844e+00 -1.256186000000000025e+00 -1.375788000000000011e+00 -6.938092000000000148e+00 1.258693999999999980e+00 -1.373793999999999960e+00 -6.938049000000000355e+00 1.257632000000000083e+00 1.374017999999999962e+00 6.934388000000000218e+00 -1.254866000000000037e+00 1.374088999999999894e+00 6.931710999999999956e+00 -1.255935000000000024e+00 -1.373679000000000094e+00 -6.939030999999999949e+00 1.257954999999999934e+00 1.374743000000000048e+00 6.934933000000000014e+00 -1.255517999999999912e+00 1.374355999999999911e+00 6.930589999999999584e+00 -1.255168999999999979e+00 -1.374044000000000043e+00 -6.939140000000000086e+00 1.258332000000000006e+00 1.374014999999999986e+00 6.933606000000000158e+00 -1.254547999999999996e+00 1.373512000000000066e+00 6.932774000000000214e+00 -1.256869000000000014e+00 -1.374289000000000094e+00 -6.938582000000000249e+00 1.258450000000000069e+00 1.374346000000000068e+00 6.936265999999999821e+00 -1.256399000000000044e+00 1.374098999999999959e+00 6.935990999999999573e+00 -1.256272999999999973e+00 1.374336000000000002e+00 6.934115000000000251e+00 -1.254992000000000107e+00 -1.375893000000000033e+00 -6.938912000000000191e+00 1.259309000000000012e+00 -1.375364999999999949e+00 -6.937012000000000178e+00 1.258037999999999990e+00 -1.375348000000000015e+00 -6.937660000000000160e+00 1.258053000000000088e+00 1.374117999999999951e+00 6.935900000000000176e+00 -1.256256999999999957e+00 1.374347999999999903e+00 6.930924000000000085e+00 -1.255279999999999951e+00 -1.375493999999999994e+00 -6.939790999999999599e+00 1.259250999999999898e+00 -1.373931000000000013e+00 -6.938350999999999935e+00 1.258434000000000053e+00 1.374079999999999968e+00 6.934777000000000413e+00 -1.255635999999999974e+00 1.374177999999999900e+00 6.932395999999999781e+00 -1.256674999999999986e+00 -1.375502999999999920e+00 -6.938316999999999624e+00 1.258226000000000067e+00 -1.374157000000000073e+00 -6.939256999999999564e+00 1.258985999999999938e+00 1.374489000000000072e+00 6.935087000000000224e+00 -1.255611999999999950e+00 1.374492000000000047e+00 6.933373999999999704e+00 -1.256958999999999937e+00 -1.376034999999999897e+00 -6.937488000000000099e+00 1.257430999999999965e+00 -1.374673999999999952e+00 -6.937805000000000000e+00 1.257508000000000070e+00 -1.375305999999999917e+00 -6.937744999999999607e+00 1.258362999999999898e+00 -1.375664999999999916e+00 -6.936581999999999582e+00 1.256933999999999996e+00 -1.375726999999999922e+00 -6.938449000000000311e+00 1.258958000000000022e+00 -1.375375999999999932e+00 -6.939473999999999698e+00 1.259400999999999993e+00 -1.374351000000000100e+00 -6.937494000000000050e+00 1.257166000000000006e+00 -1.375950000000000006e+00 -6.938245000000000218e+00 1.258456000000000019e+00 -1.374039999999999928e+00 -6.937859000000000442e+00 1.257619999999999960e+00 -1.375532999999999895e+00 -6.936644000000000254e+00 1.257703000000000015e+00 -1.373815999999999926e+00 -6.938119000000000369e+00 1.258256000000000041e+00 1.374559000000000086e+00 6.936895999999999951e+00 -1.257244000000000028e+00 1.374400000000000066e+00 6.934581999999999802e+00 -1.254567999999999905e+00 1.373945999999999890e+00 6.935334000000000110e+00 -1.255895999999999901e+00 1.374500000000000055e+00 6.934890000000000221e+00 -1.255446000000000062e+00 1.374452000000000007e+00 6.931212000000000373e+00 -1.254771000000000081e+00 1.374227000000000087e+00 6.934736000000000011e+00 -1.255506000000000011e+00 1.373993000000000020e+00 6.933419999999999916e+00 -1.257112999999999925e+00 1.374417000000000000e+00 6.934497000000000355e+00 -1.255784999999999929e+00 1.374101999999999935e+00 6.933281000000000027e+00 -1.256855000000000055e+00 1.374600999999999962e+00 6.936251000000000388e+00 -1.256709999999999994e+00 1.373699000000000003e+00 6.934783999999999615e+00 -1.255853000000000108e+00 1.374101000000000017e+00 6.936175000000000423e+00 -1.256493000000000082e+00 -1.375642999999999949e+00 -6.938677000000000206e+00 1.259006000000000070e+00 -1.375712000000000046e+00 -6.938612000000000002e+00 1.258979000000000070e+00 -1.375550000000000050e+00 -6.938738999999999990e+00 1.259493999999999891e+00 1.374366999999999894e+00 6.935063999999999673e+00 -1.255562999999999985e+00 1.374314999999999953e+00 6.931302999999999770e+00 -1.255692999999999948e+00 -1.375299000000000049e+00 -6.938278999999999641e+00 1.258485999999999994e+00 -1.374568999999999930e+00 -6.938894000000000339e+00 1.258745000000000003e+00 1.374006000000000061e+00 6.935798000000000130e+00 -1.256140000000000034e+00 1.374142999999999892e+00 6.931411999999999907e+00 -1.255821000000000076e+00 -1.375891999999999893e+00 -6.937776000000000387e+00 1.258210000000000051e+00 -1.373860999999999999e+00 -6.938429000000000180e+00 1.258766999999999969e+00 1.374031000000000002e+00 6.935698000000000363e+00 -1.256278000000000006e+00 1.374359000000000108e+00 6.931472000000000300e+00 -1.255738999999999939e+00 -1.375672999999999924e+00 -6.937248000000000303e+00 1.257741999999999916e+00 -1.374077999999999911e+00 -6.937730000000000175e+00 1.257368000000000041e+00 -8.180000000000000422e-04 -6.480000000000000300e-04 2.015999999999999997e-03 -2.714748000000000161e+00 -1.842208000000000112e+01 1.574809899999999985e+01 2.714843999999999813e+00 1.842634299999999925e+01 -1.575016800000000039e+01 2.715097000000000094e+00 1.842860399999999998e+01 -1.575078099999999992e+01 -1.800000000000000046e-05 1.899999999999999996e-03 2.849999999999999886e-04 -2.714519999999999822e+00 -1.842026100000000000e+01 1.574709299999999956e+01 -4.569999999999999952e-04 -1.052999999999999900e-03 2.047000000000000208e-03 -2.714658000000000015e+00 -1.842180799999999863e+01 1.574757100000000065e+01 2.715800000000000214e+00 1.842635200000000140e+01 -1.575024200000000008e+01 2.715432999999999986e+00 1.842684300000000164e+01 -1.574972200000000022e+01 1.108000000000000044e-03 3.001000000000000195e-03 -6.899999999999999667e-04 -2.713754999999999917e+00 -1.842137599999999864e+01 1.574782699999999913e+01 1.279999999999999942e-04 -1.366999999999999943e-03 2.121000000000000055e-03 -2.714058000000000082e+00 -1.842132900000000006e+01 1.574769500000000022e+01 2.715580000000000105e+00 1.842584799999999845e+01 -1.575003899999999923e+01 2.715663000000000160e+00 1.842680199999999857e+01 -1.574937800000000010e+01 5.689999999999999529e-04 2.064999999999999995e-03 1.640000000000000019e-04 -2.713496000000000130e+00 -1.842065900000000056e+01 1.574750200000000078e+01 -7.159999999999999481e-04 6.070000000000000092e-04 8.360000000000000460e-04 2.714738000000000095e+00 1.842682200000000137e+01 -1.575015800000000077e+01 -2.714287000000000116e+00 -1.842021599999999992e+01 1.574686100000000089e+01 -3.669999999999999760e-04 -2.562000000000000041e-03 2.906000000000000163e-03 2.715606999999999882e+00 1.842818300000000065e+01 -1.575130300000000005e+01 -2.713744999999999852e+00 -1.842035500000000070e+01 1.574695799999999934e+01 2.169999999999999891e-04 -2.194000000000000204e-03 2.328999999999999907e-03 2.715214000000000016e+00 1.842781599999999997e+01 -1.575035100000000021e+01 -2.713706000000000174e+00 -1.842133199999999960e+01 1.574786300000000061e+01 -5.379999999999999583e-04 -3.069999999999999812e-03 3.455000000000000172e-03 2.714929000000000148e+00 1.842548800000000142e+01 -1.574831999999999965e+01 2.714872000000000174e+00 1.842878500000000130e+01 -1.575029499999999949e+01 3.589999999999999984e-04 2.603999999999999978e-03 -3.249999999999999851e-04 -4.769999999999999934e-04 -3.480000000000000020e-04 1.621999999999999961e-03 2.715831000000000106e+00 1.842639099999999885e+01 -1.574886599999999959e+01 2.715052000000000021e+00 1.842767900000000125e+01 -1.574893800000000077e+01 9.290000000000000297e-04 2.495999999999999955e-03 -7.079999999999999705e-04 3.499999999999999693e-05 -1.809000000000000061e-03 2.495999999999999955e-03 2.715352000000000210e+00 1.842731600000000114e+01 -1.574965000000000082e+01 2.715316000000000063e+00 1.842693699999999879e+01 -1.574859799999999943e+01 3.820000000000000153e-04 9.659999999999999533e-04 7.540000000000000044e-04 -7.810000000000000102e-04 -2.080999999999999951e-03 2.773999999999999990e-03 2.714687000000000072e+00 1.842719999999999914e+01 -1.574860999999999933e+01 -4.490000000000000176e-04 -2.565000000000000006e-03 3.334000000000000158e-03 2.714863999999999944e+00 1.842837400000000159e+01 -1.574948700000000024e+01 -1.890000000000000133e-04 -1.739000000000000094e-03 2.517999999999999839e-03 2.715196000000000165e+00 1.842792899999999889e+01 -1.574881500000000045e+01 -2.714662000000000130e+00 -1.842249500000000140e+01 1.574976400000000076e+01 -2.714290999999999787e+00 -1.842078499999999863e+01 1.574874699999999983e+01 -2.714998000000000022e+00 -1.842167299999999841e+01 1.574890800000000013e+01 -2.713684000000000207e+00 -1.842275100000000165e+01 1.574974800000000030e+01 -2.714287000000000116e+00 -1.842195600000000155e+01 1.574901200000000046e+01 -2.714300999999999853e+00 -1.842060299999999984e+01 1.574865100000000062e+01 -2.714450999999999947e+00 -1.842090500000000119e+01 1.574949200000000005e+01 -2.713797000000000015e+00 -1.841970600000000147e+01 1.574807799999999958e+01 -2.714075999999999933e+00 -1.842152600000000007e+01 1.574969399999999986e+01 -6.930000000000000396e-04 -2.724999999999999992e-03 2.403999999999999887e-03 -2.715230000000000032e+00 -1.842084900000000047e+01 1.574742900000000034e+01 2.715259000000000089e+00 1.842599200000000081e+01 -1.574937599999999982e+01 2.715316000000000063e+00 1.842761799999999894e+01 -1.574990599999999930e+01 -9.299999999999999727e-05 2.527999999999999865e-03 -1.605000000000000090e-03 -2.714808000000000110e+00 -1.842099599999999882e+01 1.574761900000000026e+01 -8.220000000000000310e-04 -1.232000000000000022e-03 7.439999999999999782e-04 -2.714735999999999816e+00 -1.842012000000000072e+01 1.574658100000000083e+01 2.715358999999999856e+00 1.842607200000000134e+01 -1.575011100000000042e+01 2.714929000000000148e+00 1.842831699999999984e+01 -1.575025699999999951e+01 6.419999999999999925e-04 2.344999999999999862e-03 -1.121000000000000035e-03 -2.713661999999999797e+00 -1.842041700000000048e+01 1.574793000000000021e+01 -4.290000000000000193e-04 -1.923000000000000013e-03 2.543000000000000121e-03 -2.714427000000000145e+00 -1.842043100000000067e+01 1.574754300000000029e+01 2.715672999999999782e+00 1.842616999999999905e+01 -1.575004500000000007e+01 2.715202999999999811e+00 1.842736800000000130e+01 -1.575039699999999954e+01 4.209999999999999875e-04 1.827000000000000065e-03 -3.130000000000000187e-04 -2.714183999999999930e+00 -1.842073999999999856e+01 1.574794400000000039e+01 -8.869999999999999846e-04 -1.765000000000000076e-03 1.088999999999999907e-03 2.714733999999999980e+00 1.842913599999999974e+01 -1.575100199999999973e+01 -2.714440999999999882e+00 -1.842005100000000084e+01 1.574753199999999964e+01 -6.419999999999999925e-04 -2.737999999999999982e-03 2.131000000000000082e-03 2.714760000000000062e+00 1.842889299999999864e+01 -1.575082100000000018e+01 -2.713845000000000063e+00 -1.841990499999999997e+01 1.574777199999999944e+01 -2.869999999999999830e-04 -8.779999999999999827e-04 5.370000000000000424e-04 2.715294000000000096e+00 1.842807000000000173e+01 -1.575072100000000042e+01 -2.714018999999999959e+00 -1.842059199999999919e+01 1.574834800000000001e+01 -2.714604000000000017e+00 -1.842232399999999970e+01 1.574763199999999941e+01 2.715256999999999810e+00 1.842405400000000171e+01 -1.574843899999999941e+01 2.950000000000000148e-04 1.953000000000000092e-03 -2.200000000000000078e-04 -2.714538000000000117e+00 -1.842167299999999841e+01 1.574734800000000057e+01 2.715866000000000113e+00 1.842449399999999926e+01 -1.574953900000000040e+01 1.020999999999999989e-03 2.677000000000000126e-03 -7.739999999999999485e-04 -2.714487999999999790e+00 -1.842166900000000140e+01 1.574657799999999952e+01 2.715406000000000208e+00 1.842492800000000130e+01 -1.574929299999999976e+01 4.989999999999999861e-04 3.789999999999999966e-04 1.281000000000000021e-03 -2.039999999999999984e-04 -2.393000000000000162e-03 3.105999999999999820e-03 -2.714608999999999828e+00 -1.842310900000000018e+01 1.574881000000000064e+01 2.715413999999999994e+00 1.842523100000000014e+01 -1.574999900000000075e+01 2.715262000000000064e+00 1.842709999999999937e+01 -1.575008300000000006e+01 1.399999999999999877e-04 4.135999999999999920e-03 -1.512000000000000106e-03 -2.714198000000000111e+00 -1.842065900000000056e+01 1.574767100000000042e+01 -4.920000000000000328e-04 -1.376000000000000053e-03 2.547999999999999918e-03 -2.714887000000000050e+00 -1.842328200000000038e+01 1.574828100000000042e+01 2.715924999999999923e+00 1.842624400000000051e+01 -1.575020199999999981e+01 2.714685999999999932e+00 1.842661700000000025e+01 -1.574964300000000073e+01 7.879999999999999635e-04 1.498999999999999898e-03 3.860000000000000041e-04 -2.714236000000000093e+00 -1.842148600000000158e+01 1.574718299999999971e+01 -2.809999999999999998e-04 -2.951000000000000064e-03 2.497999999999999787e-03 -2.714316999999999869e+00 -1.842098000000000013e+01 1.574656300000000009e+01 2.715322000000000013e+00 1.842502899999999855e+01 -1.574920400000000065e+01 2.715012999999999899e+00 1.842648900000000012e+01 -1.574939000000000000e+01 3.420000000000000188e-04 2.315999999999999916e-03 -1.250000000000000026e-04 -2.713823999999999792e+00 -1.842261600000000143e+01 1.574823100000000053e+01 2.715015999999999874e+00 1.842551699999999926e+01 -1.574852500000000077e+01 -1.379999999999999933e-04 1.587000000000000086e-03 7.240000000000000342e-04 2.715977000000000086e+00 1.842617399999999961e+01 -1.574927399999999977e+01 7.349999999999999763e-04 7.600000000000000418e-04 4.730000000000000046e-04 2.715514999999999901e+00 1.842616599999999849e+01 -1.574920200000000037e+01 6.430000000000000169e-04 1.639999999999999965e-03 3.499999999999999693e-05 -8.499999999999999526e-04 -1.595999999999999979e-03 1.603000000000000041e-03 2.715152999999999928e+00 1.842514200000000102e+01 -1.574810699999999919e+01 2.714532000000000167e+00 1.842716000000000065e+01 -1.574925999999999959e+01 -1.500000000000000038e-05 1.696000000000000025e-03 -2.000000000000000164e-05 -6.489999999999999459e-04 -1.763999999999999943e-03 2.361999999999999950e-03 2.715615000000000112e+00 1.842505500000000040e+01 -1.574791800000000030e+01 2.715104000000000184e+00 1.842636600000000158e+01 -1.574859799999999943e+01 1.356000000000000000e-03 1.255000000000000039e-03 4.920000000000000328e-04 1.789999999999999870e-04 -2.778000000000000087e-03 2.944000000000000002e-03 2.715308999999999973e+00 1.842529899999999898e+01 -1.574876500000000057e+01 2.715593999999999841e+00 1.842748999999999882e+01 -1.574934299999999965e+01 5.000000000000000104e-04 9.060000000000000128e-04 7.420000000000000380e-04 -2.715161000000000158e+00 -1.842222800000000049e+01 1.574935299999999927e+01 -2.714684999999999793e+00 -1.842225499999999982e+01 1.574897499999999972e+01 -2.714265000000000150e+00 -1.842129100000000008e+01 1.574879400000000018e+01 -2.714862000000000108e+00 -1.842400999999999911e+01 1.575033400000000050e+01 -2.714710000000000178e+00 -1.842027300000000167e+01 1.574832600000000049e+01 -2.714952999999999950e+00 -1.842232999999999876e+01 1.574895399999999945e+01 -2.713470000000000049e+00 -1.842232100000000017e+01 1.574976400000000076e+01 -2.714599000000000206e+00 -1.842272900000000035e+01 1.574964100000000045e+01 -2.714046000000000181e+00 -1.842243500000000012e+01 1.574984199999999923e+01 -2.714831999999999912e+00 -1.842125000000000057e+01 1.574732700000000030e+01 2.715031000000000194e+00 1.842531899999999823e+01 -1.574967299999999959e+01 9.500000000000000523e-05 2.756000000000000203e-03 -8.310000000000000329e-04 -2.714675999999999867e+00 -1.842221500000000134e+01 1.574819199999999952e+01 2.715794999999999959e+00 1.842537400000000147e+01 -1.574995599999999918e+01 6.819999999999999890e-04 3.020000000000000115e-03 -1.724999999999999971e-03 -2.714424000000000170e+00 -1.842217199999999977e+01 1.574815700000000085e+01 2.715484000000000009e+00 1.842542600000000164e+01 -1.574988100000000024e+01 3.280000000000000038e-04 1.939999999999999993e-04 7.280000000000000230e-04 -1.900000000000000105e-04 -2.135000000000000179e-03 1.487999999999999956e-03 -2.715034000000000169e+00 -1.842322700000000069e+01 1.574840299999999971e+01 2.715088999999999864e+00 1.842598699999999923e+01 -1.574961599999999962e+01 2.715421000000000085e+00 1.842794699999999963e+01 -1.575126099999999951e+01 -1.949999999999999965e-04 2.135000000000000179e-03 -8.919999999999999978e-04 -2.714516000000000151e+00 -1.842116700000000051e+01 1.574741999999999997e+01 -5.749999999999999903e-04 -2.615000000000000137e-03 2.428000000000000037e-03 -2.715333999999999914e+00 -1.842274199999999951e+01 1.574855699999999992e+01 2.715555999999999859e+00 1.842534799999999962e+01 -1.574947000000000052e+01 2.714872000000000174e+00 1.842785900000000154e+01 -1.575048299999999912e+01 5.890000000000000053e-04 1.539999999999999919e-03 -1.474999999999999966e-03 -2.713757999999999893e+00 -1.842130699999999877e+01 1.574770700000000012e+01 -4.510000000000000120e-04 -3.726999999999999844e-03 2.624000000000000030e-03 -2.714355999999999991e+00 -1.842274400000000156e+01 1.574903800000000054e+01 2.715829999999999966e+00 1.842535799999999924e+01 -1.574997199999999964e+01 2.715520000000000156e+00 1.842749699999999891e+01 -1.575055599999999956e+01 1.247999999999999977e-03 1.533999999999999990e-03 -5.779999999999999548e-04 -2.713782000000000139e+00 -1.842084399999999889e+01 1.574774799999999964e+01