1.064703129524092901e+03 -4.161868753151766782e+02 -5.648185582680798689e+02 -4.161868753151766782e+02 4.993827549326226290e+03 -2.722714592185259335e+03 -5.648185582680798689e+02 -2.722714592185259335e+03 3.444011764079309160e+03
1.064651364982061523e+03 -4.162605446112727350e+02 -5.650376058087281308e+02 -4.162605446112727350e+02 4.989662790764955389e+03 -2.720138354456218622e+03 -5.650376058087281308e+02 -2.720138354456218622e+03 3.442239993358988158e+03
1.064413324797973246e+03 -4.163340576477743866e+02 -5.657070645278027996e+02 -4.163340576477743866e+02 4.976186238859306286e+03 -2.711780042952037093e+03 -5.657070645278027996e+02 -2.711780042952037093e+03 3.436225703621007597e+03
1.064125338365316793e+03 -4.164409960320804203e+02 -5.668054132175162749e+02 -4.164409960320804203e+02 4.953654727560957326e+03 -2.697795576337186048e+03 -5.668054132175162749e+02 -2.697795576337186048e+03 3.426213043379059400e+03
1.063391685363739725e+03 -4.166155664099680962e+02 -5.681667183939314327e+02 -4.166155664099680962e+02 4.922253893268170032e+03 -2.678492885450746144e+03 -5.681667183939314327e+02 -2.678492885450746144e+03 3.411774415355514066e+03
1.063146016870356334e+03 -4.169641247436182425e+02 -5.696505168870138505e+02 -4.169641247436182425e+02 4.883278687651371911e+03 -2.654332424701445689e+03 -5.696505168870138505e+02 -2.654332424701445689e+03 3.394049775908473748e+03
1.061949565566134652e+03 -4.174585158951863946e+02 -5.711612914682734754e+02 -4.174585158951863946e+02 4.836352539293243353e+03 -2.625907469153332386e+03 -5.711612914682734754e+02 -2.625907469153332386e+03 3.372062275285653868e+03
1.061531358069592216e+03 -4.182502264388276672e+02 -5.725414898502050391e+02 -4.182502264388276672e+02 4.784228316086276209e+03 -2.594121710657631866e+03 -5.725414898502050391e+02 -2.594121710657631866e+03 3.348376204459826113e+03
1.060015057580854545e+03 -4.193706645530358514e+02 -5.737032515244484330e+02 -4.193706645530358514e+02 4.726149607949767415e+03 -2.559725081624582799e+03 -5.737032515244484330e+02 -2.559725081624582799e+03 3.321878980912759289e+03
1.058652672792695512e+03 -4.207984226733649393e+02 -5.744130394243208002e+02 -4.207984226733649393e+02 4.664122773871630670e+03 -2.523386344707794251e+03 -5.744130394243208002e+02 -2.523386344707794251e+03 3.294420462545769624e+03
