2.605140000000000011e+00 3.355589999999999851e+00 4.677500000000000213e+00 9.867440000000000211e+00 3.901029999999999998e+00 2.257649999999999935e+00 1.986420000000000075e+00 1.201500000000000012e+00 2.257670000000000066e+00 5.692199999999999704e+00 3.355589999999999851e+00 4.677509999999999835e+00 3.693309999999999871e+00 3.901040000000000063e+00 2.257639999999999869e+00 5.073470000000000368e+00 1.201489999999999947e+00 2.257660000000000000e+00 8.779279999999999973e+00 3.355589999999999851e+00 4.677489999999999704e+00 6.780380000000000074e+00 3.901040000000000063e+00 2.257660000000000000e+00 8.160539999999999239e+00 1.201489999999999947e+00 2.257670000000000066e+00 1.225000000000000089e+00 6.055150000000000254e+00 4.677500000000000213e+00 2.313200000000000145e+00 6.600600000000000023e+00 2.257670000000000066e+00 4.312059999999999782e+00 6.055159999999999876e+00 4.677489999999999704e+00 5.400269999999999904e+00 6.600609999999999644e+00 2.257680000000000131e+00 7.399130000000000429e+00 6.055150000000000254e+00 4.677489999999999704e+00 8.487339999999999662e+00 6.600609999999999644e+00 2.257680000000000131e+00 1.115886000000000067e+01 4.862569999999999837e+00 9.220090000000000785e+00 3.277829999999999799e+00 2.163040000000000074e+00 9.220110000000000028e+00 4.984720000000000262e+00 4.862589999999999968e+00 9.220090000000000785e+00 6.364880000000000315e+00 2.163050000000000139e+00 9.220100000000000406e+00 8.071780000000000399e+00 4.862580000000000346e+00 9.220090000000000785e+00 9.451950000000000074e+00 2.163040000000000074e+00 9.220110000000000028e+00 3.604620000000000157e+00 7.562149999999999928e+00 9.220119999999999649e+00 6.691690000000000360e+00 7.562160000000000437e+00 9.220110000000000028e+00 9.778750000000000497e+00 7.562140000000000306e+00 9.220100000000000406e+00 8.982099999999999529e-01 6.560500000000000220e-01 4.677509999999999835e+00 3.985259999999999803e+00 6.560599999999999765e-01 4.677489999999999704e+00 7.072330000000000005e+00 6.560500000000000220e-01 4.677489999999999704e+00 3.896560000000000024e+00 4.317140000000000200e+00 1.163993999999999929e+01 6.983629999999999782e+00 4.317129999999999690e+00 1.163992999999999967e+01 1.007070000000000043e+01 4.317129999999999690e+00 1.163992000000000004e+01 2.516420000000000101e+00 7.016689999999999650e+00 1.163993999999999929e+01 5.603489999999999860e+00 7.016689999999999650e+00 1.163992999999999967e+01 8.690559999999999619e+00 7.016700000000000159e+00 1.163992999999999967e+01 5.187990000000000101e+00 5.278690000000000104e+00 1.860236000000000089e+01 1.245027999999999935e+01 5.824119999999999742e+00 1.618252000000000024e+01 4.569250000000000256e+00 3.124600000000000044e+00 1.618253999999999948e+01 8.275040000000000617e+00 5.278679999999999595e+00 1.860238000000000014e+01 6.276139999999999830e+00 5.824139999999999873e+00 1.618252999999999986e+01 7.656320000000000014e+00 3.124589999999999979e+00 1.618253999999999948e+01 1.136210999999999949e+01 5.278690000000000104e+00 1.860236000000000089e+01 9.363210000000000477e+00 5.824130000000000251e+00 1.618252000000000024e+01 1.074338000000000015e+01 3.124600000000000044e+00 1.618254999999999910e+01 3.807840000000000114e+00 7.978250000000000064e+00 1.860237000000000052e+01 4.896049999999999791e+00 8.523699999999999832e+00 1.618254999999999910e+01 6.894899999999999807e+00 7.978250000000000064e+00 1.860238000000000014e+01 7.983109999999999928e+00 8.523699999999999832e+00 1.618254999999999910e+01 9.981980000000000075e+00 7.978259999999999685e+00 1.860238000000000014e+01 1.107018000000000058e+01 8.523699999999999832e+00 1.618253999999999948e+01 2.189630000000000187e+00 1.617609999999999992e+00 1.163992999999999967e+01 5.276690000000000325e+00 1.617599999999999927e+00 1.163993999999999929e+01 8.363759999999999195e+00 1.617599999999999927e+00 1.163992999999999967e+01 3.481050000000000200e+00 2.579159999999999897e+00 1.860238000000000014e+01 6.568109999999999893e+00 2.579159999999999897e+00 1.860237000000000052e+01 9.655179999999999652e+00 2.579149999999999832e+00 1.860236000000000089e+01 1.019421999999999962e+01 9.300140000000000740e+00 2.257639999999999869e+00 4.020109999999999850e+00 9.300119999999999720e+00 2.257660000000000000e+00 7.107160000000000366e+00 9.300129999999999342e+00 2.257649999999999935e+00 1.551800000000000068e+00 1.145425000000000004e+01 4.677489999999999704e+00 3.258739999999999970e+00 1.415380000000000038e+01 4.677489999999999704e+00 1.052103999999999928e+01 1.469923000000000002e+01 2.257660000000000000e+00 2.640010000000000190e+00 1.199968999999999930e+01 2.257670000000000066e+00 4.638860000000000205e+00 1.145424000000000042e+01 4.677509999999999835e+00 6.345819999999999794e+00 1.415379000000000076e+01 4.677500000000000213e+00 4.346899999999999764e+00 1.469923000000000002e+01 2.257660000000000000e+00 5.727070000000000327e+00 1.199968999999999930e+01 2.257680000000000131e+00 7.725939999999999586e+00 1.145424000000000042e+01 4.677509999999999835e+00 9.432869999999999422e+00 1.415379000000000076e+01 4.677509999999999835e+00 7.433980000000000032e+00 1.469923000000000002e+01 2.257649999999999935e+00 8.814130000000000464e+00 1.199971000000000032e+01 2.257670000000000066e+00 1.148564999999999969e+01 1.026168999999999976e+01 9.220079999999999387e+00 5.311519999999999797e+00 1.026168000000000013e+01 9.220100000000000406e+00 8.398590000000000444e+00 1.026168000000000013e+01 9.220079999999999387e+00 1.181245999999999974e+01 1.566079000000000043e+01 9.220079999999999387e+00 3.931430000000000202e+00 1.296124999999999972e+01 9.220119999999999649e+00 5.638329999999999842e+00 1.566079000000000043e+01 9.220090000000000785e+00 7.018489999999999895e+00 1.296124999999999972e+01 9.220110000000000028e+00 8.725390000000000867e+00 1.566078000000000081e+01 9.220100000000000406e+00 1.010556000000000054e+01 1.296124000000000009e+01 9.220110000000000028e+00 2.931939999999999991e+00 8.754680000000000462e+00 4.677509999999999835e+00 6.019009999999999749e+00 8.754699999999999704e+00 4.677489999999999704e+00 9.106070000000000775e+00 8.754690000000000083e+00 4.677489999999999704e+00 2.843230000000000146e+00 1.241581000000000046e+01 1.163992999999999967e+01 4.550159999999999982e+00 1.511533999999999978e+01 1.163992999999999967e+01 5.930279999999999774e+00 1.241580000000000084e+01 1.163992999999999967e+01 7.637220000000000120e+00 1.511533000000000015e+01 1.163993999999999929e+01 9.017360000000000042e+00 1.241580000000000084e+01 1.163992999999999967e+01 1.072429999999999950e+01 1.511534999999999940e+01 1.163993999999999929e+01 1.277707000000000015e+01 1.122324000000000055e+01 1.618252999999999986e+01 6.602949999999999875e+00 1.122322999999999915e+01 1.618252000000000024e+01 9.690009999999999124e+00 1.122321999999999953e+01 1.618252000000000024e+01 4.134649999999999714e+00 1.337734000000000023e+01 1.860238000000000014e+01 5.841580000000000439e+00 1.607688999999999879e+01 1.860236000000000089e+01 1.310387000000000057e+01 1.662233000000000160e+01 1.618252999999999986e+01 5.222850000000000215e+00 1.392279000000000089e+01 1.618252999999999986e+01 7.221709999999999852e+00 1.337734999999999985e+01 1.860236000000000089e+01 8.928649999999999309e+00 1.607689999999999841e+01 1.860237000000000052e+01 6.929739999999999789e+00 1.662234000000000123e+01 1.618252000000000024e+01 8.309910000000000352e+00 1.392280000000000051e+01 1.618254999999999910e+01 1.030875999999999948e+01 1.337734000000000023e+01 1.860238000000000014e+01 1.201571999999999996e+01 1.607688999999999879e+01 1.860237000000000052e+01 1.001681999999999917e+01 1.662234000000000123e+01 1.618252999999999986e+01 1.139699000000000062e+01 1.392280000000000051e+01 1.618254999999999910e+01 4.223370000000000068e+00 9.716240000000000876e+00 1.163992999999999967e+01 7.310430000000000206e+00 9.716240000000000876e+00 1.163993999999999929e+01 1.039748999999999945e+01 9.716240000000000876e+00 1.163992999999999967e+01 5.514780000000000015e+00 1.067778999999999989e+01 1.860237000000000052e+01 8.601850000000000662e+00 1.067778000000000027e+01 1.860236000000000089e+01 1.168890000000000029e+01 1.067778000000000027e+01 1.860236000000000089e+01 8.107549999999999812e+00 6.569700000000000095e+00 8.138920000000000599e+00 8.544539999999999580e+00 8.639170000000000016e+00 1.042999000000000009e+01 5.020480000000000054e+00 6.569700000000000095e+00 8.138920000000000599e+00 7.521700000000000053e-01 2.278519999999999879e+00 3.467569999999999819e+00 1.045051999999999914e+01 4.348029999999999617e+00 5.758720000000000283e+00 2.022120000000000140e+00 2.908630000000000049e+00 1.176500000000000101e+00 3.151900000000000257e-01 2.090500000000000136e-01 1.176500000000000101e+00 2.459189999999999987e+00 4.978100000000000414e+00 3.467610000000000081e+00 2.569490000000000052e+00 1.648509999999999920e+00 5.758770000000000167e+00 3.839249999999999829e+00 2.278540000000000010e+00 3.467569999999999819e+00 4.276390000000000136e+00 4.348029999999999617e+00 5.758720000000000283e+00 5.109180000000000277e+00 2.908619999999999983e+00 1.176500000000000101e+00 3.402260000000000062e+00 2.090500000000000136e-01 1.176490000000000036e+00 5.546249999999999680e+00 4.978110000000000035e+00 3.467630000000000212e+00 5.656550000000000189e+00 1.648519999999999985e+00 5.758770000000000167e+00 6.926309999999999967e+00 2.278519999999999879e+00 3.467569999999999819e+00 7.363450000000000273e+00 4.348029999999999617e+00 5.758709999999999773e+00 8.196260000000000545e+00 2.908630000000000049e+00 1.176490000000000036e+00 6.489329999999999821e+00 2.090400000000000036e-01 1.176490000000000036e+00 8.633309999999999818e+00 4.978110000000000035e+00 3.467610000000000081e+00 8.743619999999999948e+00 1.648509999999999920e+00 5.758759999999999657e+00 1.078969999999999985e+00 7.677620000000000111e+00 3.467560000000000198e+00 6.419899999999999496e-01 5.608150000000000190e+00 1.176509999999999945e+00 2.896279999999999966e+00 7.047620000000000218e+00 5.758770000000000167e+00 4.166050000000000253e+00 7.677629999999999733e+00 3.467560000000000198e+00 3.729070000000000107e+00 5.608150000000000190e+00 1.176500000000000101e+00 5.983360000000000234e+00 7.047620000000000218e+00 5.758770000000000167e+00 7.253120000000000012e+00 7.677629999999999733e+00 3.467560000000000198e+00 6.816130000000000244e+00 5.608150000000000190e+00 1.176500000000000101e+00 9.070420000000000371e+00 7.047609999999999708e+00 5.758759999999999657e+00 2.043610000000000149e+00 3.240079999999999849e+00 1.042999999999999972e+01 3.313550000000000217e+00 3.870179999999999954e+00 8.138930000000000220e+00 1.606610000000000094e+00 1.170600000000000085e+00 8.138930000000000220e+00 3.750589999999999868e+00 5.939659999999999940e+00 1.043004999999999960e+01 5.130659999999999776e+00 3.240089999999999915e+00 1.042999000000000009e+01 6.400610000000000355e+00 3.870179999999999954e+00 8.138939999999999841e+00 4.693679999999999630e+00 1.170600000000000085e+00 8.138920000000000599e+00 6.837659999999999627e+00 5.939650000000000318e+00 1.043004999999999960e+01 8.217739999999999156e+00 3.240069999999999784e+00 1.043000999999999934e+01 9.487669999999999604e+00 3.870159999999999823e+00 8.138939999999999841e+00 7.780739999999999768e+00 1.170600000000000085e+00 8.138930000000000220e+00 9.924720000000000653e+00 5.939659999999999940e+00 1.043005999999999922e+01 2.370400000000000063e+00 8.639179999999999637e+00 1.042999000000000009e+01 1.933410000000000073e+00 6.569700000000000095e+00 8.138930000000000220e+00 5.457460000000000200e+00 8.639179999999999637e+00 1.042999999999999972e+01 1.165325999999999951e+01 8.970720000000000027e+00 1.968363000000000085e+01 9.398960000000000647e+00 7.531250000000000000e+00 1.510136999999999929e+01 9.835950000000000415e+00 9.600720000000000809e+00 1.739243000000000094e+01 8.566179999999999239e+00 8.970710000000000406e+00 1.968364000000000047e+01 6.311910000000000132e+00 7.531259999999999621e+00 1.510138000000000069e+01 6.748879999999999768e+00 9.600720000000000809e+00 1.739244000000000057e+01 1.174193999999999960e+01 5.309590000000000032e+00 1.272115999999999936e+01 3.860910000000000064e+00 2.610069999999999890e+00 1.272119999999999962e+01 5.567800000000000082e+00 5.309580000000000410e+00 1.272115999999999936e+01 6.947960000000000136e+00 2.610069999999999890e+00 1.272119999999999962e+01 8.654880000000000351e+00 5.309590000000000032e+00 1.272114999999999974e+01 1.003504000000000040e+01 2.610059999999999825e+00 1.272119999999999962e+01 4.187710000000000043e+00 8.009169999999999234e+00 1.272119000000000000e+01 7.274779999999999802e+00 8.009169999999999234e+00 1.272119000000000000e+01 1.036182999999999943e+01 8.009159999999999613e+00 1.272119999999999962e+01 3.335010000000000030e+00 4.201629999999999754e+00 1.739243000000000094e+01 1.303336000000000006e+01 6.271130000000000315e+00 1.968358999999999881e+01 4.604960000000000164e+00 4.831719999999999793e+00 1.510135999999999967e+01 2.898029999999999884e+00 2.132140000000000146e+00 1.510135999999999967e+01 5.042010000000000325e+00 6.901209999999999845e+00 1.739247999999999905e+01 5.152330000000000076e+00 3.571619999999999795e+00 1.968364000000000047e+01 6.422089999999999854e+00 4.201629999999999754e+00 1.739244000000000057e+01 6.859219999999999651e+00 6.271130000000000315e+00 1.968357999999999919e+01 7.692040000000000433e+00 4.831719999999999793e+00 1.510136999999999929e+01 5.985100000000000087e+00 2.132140000000000146e+00 1.510136999999999929e+01 8.129080000000000084e+00 6.901209999999999845e+00 1.739247999999999905e+01 8.239390000000000214e+00 3.571600000000000108e+00 1.968363000000000085e+01 9.509149999999999991e+00 4.201629999999999754e+00 1.739243000000000094e+01 9.946289999999999409e+00 6.271130000000000315e+00 1.968357999999999919e+01 1.077909999999999968e+01 4.831710000000000171e+00 1.510136999999999929e+01 9.072169999999999845e+00 2.132150000000000212e+00 1.510135999999999967e+01 1.121615000000000073e+01 6.901200000000000223e+00 1.739248999999999867e+01 1.132646000000000086e+01 3.571610000000000174e+00 1.968362000000000123e+01 3.661810000000000009e+00 9.600720000000000809e+00 1.739243000000000094e+01 3.224839999999999929e+00 7.531240000000000379e+00 1.510135999999999967e+01 5.479129999999999612e+00 8.970720000000000027e+00 1.968364000000000047e+01 1.057832999999999934e+01 1.673786000000000129e+01 1.043004999999999960e+01 8.434350000000000236e+00 1.196879999999999988e+01 8.138930000000000220e+00 1.014127000000000045e+01 1.466838000000000086e+01 8.138930000000000220e+00 1.077731999999999957e+01 9.747139999999999915e+00 5.758709999999999773e+00 2.348930000000000184e+00 8.307729999999999393e+00 1.176500000000000101e+00 2.785969999999999835e+00 1.037720000000000020e+01 3.467620000000000147e+00 4.603189999999999671e+00 9.747139999999999915e+00 5.758709999999999773e+00 5.435990000000000322e+00 8.307719999999999771e+00 1.176500000000000101e+00 5.873039999999999594e+00 1.037720999999999982e+01 3.467620000000000147e+00 7.690260000000000318e+00 9.747130000000000294e+00 5.758729999999999905e+00 8.523070000000000590e+00 8.307729999999999393e+00 1.176490000000000036e+00 8.960100000000000620e+00 1.037720999999999982e+01 3.467610000000000081e+00 1.405790000000000095e+00 1.307671999999999990e+01 3.467560000000000198e+00 1.110411000000000037e+01 1.514624000000000059e+01 5.758729999999999905e+00 2.675730000000000164e+00 1.370681000000000083e+01 1.176500000000000101e+00 9.687999999999999945e-01 1.100723999999999947e+01 1.176490000000000036e+00 3.112779999999999880e+00 1.577630000000000088e+01 3.467620000000000147e+00 3.223079999999999945e+00 1.244670999999999950e+01 5.758759999999999657e+00 4.492849999999999788e+00 1.307673999999999914e+01 3.467569999999999819e+00 4.929979999999999585e+00 1.514622999999999919e+01 5.758720000000000283e+00 5.762780000000000236e+00 1.370683000000000007e+01 1.176490000000000036e+00 4.055869999999999642e+00 1.100726000000000049e+01 1.176500000000000101e+00 6.199840000000000018e+00 1.577630000000000088e+01 3.467610000000000081e+00 6.310150000000000148e+00 1.244671999999999912e+01 5.758770000000000167e+00 7.579909999999999926e+00 1.307672999999999952e+01 3.467560000000000198e+00 8.017049999999999343e+00 1.514624000000000059e+01 5.758729999999999905e+00 8.849849999999999994e+00 1.370683000000000007e+01 1.176490000000000036e+00 7.142929999999999779e+00 1.100725000000000087e+01 1.176500000000000101e+00 9.286910000000000664e+00 1.577630000000000088e+01 3.467610000000000081e+00 9.397220000000000795e+00 1.244670999999999950e+01 5.758759999999999657e+00 3.640350000000000197e+00 9.269270000000000564e+00 8.138920000000000599e+00 4.077399999999999913e+00 1.133874999999999922e+01 1.043005999999999922e+01 6.727409999999999890e+00 9.269280000000000186e+00 8.138920000000000599e+00 7.164460000000000051e+00 1.133876000000000062e+01 1.043003999999999998e+01 9.814489999999999270e+00 9.269259999999999167e+00 8.138930000000000220e+00 1.025153000000000070e+01 1.133876000000000062e+01 1.043004999999999960e+01 2.697200000000000042e+00 1.403828000000000031e+01 1.043000999999999934e+01 3.967140000000000111e+00 1.466838000000000086e+01 8.138939999999999841e+00 2.260219999999999896e+00 1.196879000000000026e+01 8.138939999999999841e+00 4.404200000000000337e+00 1.673785000000000167e+01 1.043005999999999922e+01 5.784270000000000245e+00 1.403828000000000031e+01 1.042999000000000009e+01 7.054199999999999804e+00 1.466836999999999946e+01 8.138939999999999841e+00 5.347269999999999968e+00 1.196880999999999950e+01 8.138930000000000220e+00 7.491270000000000095e+00 1.673785000000000167e+01 1.043003999999999998e+01 8.871330000000000382e+00 1.403827000000000069e+01 1.042999999999999972e+01 1.198005999999999993e+01 1.436980999999999931e+01 1.968364000000000047e+01 1.186975999999999942e+01 1.769940000000000069e+01 1.739248999999999867e+01 9.725759999999999295e+00 1.293033999999999928e+01 1.510136999999999929e+01 1.143271000000000015e+01 1.562991000000000064e+01 1.510136999999999929e+01 1.059989000000000026e+01 1.706934000000000040e+01 1.968358999999999881e+01 1.016273999999999944e+01 1.499981999999999971e+01 1.739243000000000094e+01 1.206872000000000078e+01 1.070869000000000071e+01 1.272117000000000075e+01 5.894599999999999618e+00 1.070869000000000071e+01 1.272114999999999974e+01 8.981669999999999376e+00 1.070867999999999931e+01 1.272114999999999974e+01 1.239553000000000083e+01 1.610779000000000138e+01 1.272115999999999936e+01 4.514499999999999957e+00 1.340826000000000029e+01 1.272119999999999962e+01 6.221390000000000420e+00 1.610778000000000176e+01 1.272115999999999936e+01 7.601569999999999716e+00 1.340826999999999991e+01 1.272119999999999962e+01 9.308469999999999800e+00 1.610778000000000176e+01 1.272115999999999936e+01 1.068863999999999947e+01 1.340825000000000067e+01 1.272119000000000000e+01 1.336015000000000086e+01 1.167023999999999972e+01 1.968358999999999881e+01 4.931770000000000209e+00 1.023081999999999958e+01 1.510138000000000069e+01 5.368820000000000370e+00 1.230030000000000001e+01 1.739248999999999867e+01 7.186009999999999565e+00 1.167023000000000010e+01 1.968357999999999919e+01 8.018819999999999837e+00 1.023081999999999958e+01 1.510136999999999929e+01 8.455870000000000886e+00 1.230030000000000001e+01 1.739248999999999867e+01 1.027308000000000021e+01 1.167022000000000048e+01 1.968358999999999881e+01 1.110590999999999973e+01 1.023081999999999958e+01 1.510136999999999929e+01 1.154293999999999976e+01 1.230030000000000001e+01 1.739248999999999867e+01 3.988630000000000120e+00 1.499981999999999971e+01 1.739243000000000094e+01 1.368694999999999951e+01 1.706933000000000078e+01 1.968357999999999919e+01 5.258569999999999744e+00 1.562991000000000064e+01 1.510136999999999929e+01 3.551629999999999843e+00 1.293033999999999928e+01 1.510135999999999967e+01 5.695610000000000284e+00 1.769940000000000069e+01 1.739247999999999905e+01 5.805930000000000035e+00 1.436980999999999931e+01 1.968363000000000085e+01 7.075689999999999813e+00 1.499981999999999971e+01 1.739242000000000132e+01 7.512830000000000119e+00 1.706932000000000116e+01 1.968357999999999919e+01 8.345629999999999882e+00 1.562991000000000064e+01 1.510136999999999929e+01 6.638690000000000424e+00 1.293035000000000068e+01 1.510136999999999929e+01 8.782690000000000552e+00 1.769941000000000031e+01 1.739248999999999867e+01 8.892989999999999284e+00 1.436982000000000070e+01 1.968364000000000047e+01