-2.755009182990000227e+03
-2.755054676910000126e+03
-2.755065164099999947e+03
-2.755040772159999960e+03
-2.754981784760000210e+03
-2.754888589849999789e+03
-2.754761746959999982e+03
-2.754602097219999905e+03
-2.754410687290000169e+03
-2.754188608810000005e+03
