-9.987059999999999826e-01 -4.355370000000000075e-01 1.486958000000000002e+00 9.978759999999999852e-01 4.353980000000000072e-01 -1.486683999999999894e+00 9.975770000000000470e-01 4.357070000000000110e-01 -1.487006000000000050e+00 -9.981010000000000160e-01 -4.356099999999999972e-01 1.486377000000000059e+00 9.983389999999999764e-01 4.346579999999999888e-01 -1.486609999999999987e+00 9.975159999999999583e-01 4.362039999999999806e-01 -1.486234999999999973e+00 -9.981349999999999945e-01 -4.360129999999999839e-01 1.487289000000000083e+00 9.983319999999999972e-01 4.352190000000000225e-01 -1.486939000000000011e+00 9.988949999999999774e-01 4.363070000000000004e-01 -1.487273999999999985e+00 -9.974910000000000165e-01 -4.354359999999999897e-01 1.487621000000000082e+00 9.982600000000000362e-01 4.355200000000000182e-01 -1.487360000000000015e+00 -9.983300000000000507e-01 -4.354069999999999885e-01 1.487443000000000071e+00 9.978500000000000147e-01 4.358130000000000059e-01 -1.487262000000000084e+00 -9.981710000000000305e-01 -4.356809999999999850e-01 1.487165000000000070e+00 9.984009999999999829e-01 4.350249999999999950e-01 -1.487190999999999930e+00 9.979230000000000045e-01 4.359629999999999894e-01 -1.486880999999999897e+00 9.979240000000000332e-01 4.355809999999999960e-01 -1.487622999999999918e+00 9.986420000000000297e-01 4.351579999999999893e-01 -1.486952000000000051e+00 9.976739999999999498e-01 4.360649999999999804e-01 -1.486685999999999952e+00 9.985190000000000454e-01 4.352199999999999958e-01 -1.487030000000000074e+00 9.992440000000000211e-01 4.358400000000000052e-01 -1.487665000000000015e+00 9.982950000000000434e-01 4.355959999999999832e-01 -1.487878999999999952e+00 9.977340000000000098e-01 4.360859999999999737e-01 -1.487592000000000025e+00 9.985840000000000272e-01 4.354390000000000205e-01 -1.487298000000000009e+00 -9.974060000000000148e-01 -4.351019999999999888e-01 1.487205000000000110e+00 -9.976239999999999553e-01 -4.358380000000000032e-01 1.487489999999999979e+00 -9.984159999999999702e-01 -4.362340000000000106e-01 1.487513000000000085e+00 -9.989190000000000014e-01 -4.354169999999999985e-01 1.487352999999999925e+00 -9.982769999999999699e-01 -4.353400000000000047e-01 1.486809999999999965e+00 -9.980890000000000040e-01 -4.356909999999999950e-01 1.487678000000000056e+00 -9.978519999999999612e-01 -4.351949999999999985e-01 1.487924000000000024e+00 -9.983959999999999502e-01 -4.349540000000000073e-01 1.487565000000000026e+00 -9.982779999999999987e-01 -4.352880000000000082e-01 1.487535999999999969e+00 -9.989620000000000166e-01 -4.354509999999999770e-01 1.487271999999999927e+00 9.978540000000000187e-01 4.356090000000000240e-01 -1.487190999999999930e+00 9.978029999999999955e-01 4.357500000000000262e-01 -1.487508000000000052e+00 -9.983459999999999557e-01 -4.354330000000000145e-01 1.486337000000000019e+00 9.986169999999999769e-01 4.350499999999999923e-01 -1.487230999999999970e+00 9.974499999999999478e-01 4.363279999999999936e-01 -1.486874000000000029e+00 -9.979259999999999797e-01 -4.360709999999999864e-01 1.487158999999999898e+00 9.983600000000000252e-01 4.353429999999999800e-01 -1.487355999999999900e+00 9.991299999999999626e-01 4.360640000000000072e-01 -1.487880000000000091e+00 -9.978179999999999827e-01 -4.356099999999999972e-01 1.487765999999999922e+00 9.985960000000000392e-01 4.348350000000000271e-01 -1.487945999999999991e+00 -9.983260000000000467e-01 -4.356970000000000010e-01 1.486931000000000003e+00 9.976120000000000543e-01 4.356320000000000192e-01 -1.487951000000000024e+00 -9.980480000000000462e-01 -4.358630000000000004e-01 1.486938000000000093e+00 9.982290000000000330e-01 4.347289999999999766e-01 -1.487387999999999932e+00 -9.974950000000000205e-01 -4.351960000000000273e-01 1.487656000000000089e+00 -9.977089999999999570e-01 -4.354270000000000085e-01 1.487433000000000005e+00 -9.985309999999999464e-01 -4.361650000000000249e-01 1.487864000000000075e+00 -9.973539999999999628e-01 -4.349359999999999893e-01 1.487076000000000064e+00 -9.978709999999999525e-01 -4.355229999999999935e-01 1.487440000000000095e+00 -9.985330000000000039e-01 -4.357210000000000250e-01 1.487382999999999900e+00 9.981630000000000225e-01 4.360519999999999952e-01 -1.486243999999999899e+00 9.988590000000000524e-01 4.365069999999999784e-01 -1.487365000000000048e+00 9.979470000000000285e-01 4.362039999999999806e-01 -1.486941000000000068e+00 -9.981240000000000112e-01 -4.357909999999999839e-01 1.486680000000000001e+00 -9.981400000000000272e-01 -4.356880000000000197e-01 1.487168000000000045e+00 9.978380000000000027e-01 4.358210000000000139e-01 -1.487076000000000064e+00 9.983729999999999549e-01 4.351999999999999758e-01 -1.486769000000000007e+00 -9.980860000000000287e-01 -4.358580000000000232e-01 1.487087999999999965e+00 -9.979949999999999655e-01 -4.351329999999999920e-01 1.487538999999999945e+00 9.985699999999999577e-01 4.351970000000000005e-01 -1.487071999999999949e+00 9.979329999999999590e-01 4.357989999999999919e-01 -1.486963000000000035e+00 -9.988209999999999589e-01 -4.352610000000000090e-01 1.487025000000000041e+00 -9.982360000000000122e-01 -4.354500000000000037e-01 1.486890999999999963e+00 9.980480000000000462e-01 4.351410000000000000e-01 -1.486925000000000052e+00 9.982919999999999572e-01 4.347980000000000178e-01 -1.486644000000000077e+00 9.979069999999999885e-01 4.359190000000000009e-01 -1.486617999999999995e+00 9.991910000000000514e-01 4.360220000000000207e-01 -1.487714999999999899e+00 9.980839999999999712e-01 4.356909999999999950e-01 -1.487313000000000107e+00 9.977230000000000265e-01 4.358420000000000072e-01 -1.487441999999999931e+00 9.980900000000000327e-01 4.353150000000000075e-01 -1.487190000000000012e+00 9.984220000000000317e-01 4.352219999999999978e-01 -1.487376999999999949e+00 9.980869999999999465e-01 4.353890000000000260e-01 -1.487158999999999898e+00 9.985690000000000399e-01 4.351960000000000273e-01 -1.487746000000000013e+00 9.984490000000000309e-01 4.351829999999999865e-01 -1.487324000000000090e+00 -9.983560000000000212e-01 -4.355859999999999732e-01 1.487384000000000039e+00 -9.977120000000000433e-01 -4.348199999999999843e-01 1.487621000000000082e+00 -9.977420000000000178e-01 -4.349890000000000145e-01 1.487416000000000071e+00 -9.981090000000000240e-01 -4.360809999999999964e-01 1.486771000000000065e+00 -9.983309999999999684e-01 -4.356360000000000232e-01 1.487313000000000107e+00 -9.980339999999999767e-01 -4.361929999999999974e-01 1.487268999999999952e+00 -9.976260000000000128e-01 -4.351349999999999940e-01 1.487611000000000017e+00 -9.988120000000000331e-01 -4.356280000000000152e-01 1.487209000000000003e+00 -9.984600000000000142e-01 -4.351430000000000020e-01 1.487265000000000059e+00 9.981489999999999529e-01 4.360370000000000079e-01 -1.486857000000000095e+00 9.990750000000000464e-01 4.357809999999999739e-01 -1.487287000000000026e+00 9.978089999999999460e-01 4.357480000000000242e-01 -1.487214999999999954e+00 -9.983130000000000059e-01 -4.355160000000000142e-01 1.486588000000000021e+00 -9.980250000000000510e-01 -4.356189999999999785e-01 1.487017000000000033e+00 9.979360000000000452e-01 4.359399999999999942e-01 -1.487972000000000072e+00 9.981299999999999617e-01 4.353920000000000012e-01 -1.487141999999999964e+00 -9.980869999999999465e-01 -4.363879999999999981e-01 1.487697999999999965e+00 -9.978289999999999660e-01 -4.354799999999999782e-01 1.487584999999999935e+00 9.987200000000000522e-01 4.351389999999999980e-01 -1.487576999999999927e+00 9.980510000000000215e-01 4.359060000000000157e-01 -1.487392999999999965e+00 -9.986129999999999729e-01 -4.353469999999999840e-01 1.487328999999999901e+00 -9.985410000000000119e-01 -4.354430000000000245e-01 1.487149999999999972e+00 9.983689999999999509e-01 4.351180000000000048e-01 -1.488093000000000110e+00 9.983880000000000532e-01 4.353380000000000027e-01 -1.487279000000000018e+00 -9.987390000000000434e-01 -4.359669999999999934e-01 1.487837999999999994e+00 -9.974659999999999638e-01 -4.350530000000000230e-01 1.487249999999999961e+00 -9.977909999999999835e-01 -4.355129999999999835e-01 1.487495000000000012e+00 -9.982689999999999619e-01 -4.359370000000000189e-01 1.487668999999999908e+00 -9.979820000000000357e-01 -4.346010000000000151e-01 1.487608000000000041e+00 -9.979080000000000172e-01 -4.354190000000000005e-01 1.487608999999999959e+00 5.931999999999999496e-01 6.599899999999999656e-01 -2.295700000000000171e-02 1.190000000000000058e-04 7.630000000000000063e-04 -2.930000000000000204e-04 5.936010000000000453e-01 6.599519999999999831e-01 -2.326800000000000049e-02 7.749999999999999728e-04 -6.380000000000000037e-04 -2.390000000000000089e-04 -5.935219999999999940e-01 -6.589679999999999982e-01 2.120400000000000063e-02 5.933850000000000513e-01 6.586349999999999705e-01 -2.156800000000000037e-02 5.942129999999999912e-01 6.595159999999999911e-01 -2.231899999999999856e-02 -1.599999999999999928e-05 -4.620000000000000083e-04 -6.700000000000000226e-05 -5.944840000000000124e-01 -6.597920000000000451e-01 2.089900000000000091e-02 1.379999999999999933e-04 -6.509999999999999945e-04 6.999999999999999895e-06 -5.936700000000000310e-01 -6.591890000000000249e-01 2.118599999999999997e-02 5.936949999999999728e-01 6.583179999999999588e-01 -2.170499999999999860e-02 5.939029999999999587e-01 6.594290000000000429e-01 -2.138800000000000076e-02 4.459999999999999989e-04 -3.460000000000000076e-04 -6.880000000000000265e-04 -5.942110000000000447e-01 -6.599239999999999551e-01 2.073600000000000096e-02 1.779999999999999898e-04 -6.030000000000000204e-04 -8.799999999999999771e-05 -5.942079999999999584e-01 -6.590209999999999679e-01 2.112999999999999948e-02 5.940239999999999965e-01 6.582620000000000138e-01 -2.161199999999999927e-02 5.938870000000000537e-01 6.596680000000000321e-01 -2.180299999999999946e-02 1.649999999999999991e-04 -6.480000000000000300e-04 -6.920000000000000153e-04 -5.943549999999999667e-01 -6.595250000000000279e-01 2.089600000000000138e-02 1.097000000000000102e-03 2.739999999999999923e-04 2.889999999999999774e-04 5.939349999999999907e-01 6.588270000000000515e-01 -2.152099999999999846e-02 -5.937179999999999680e-01 -6.582850000000000090e-01 2.069100000000000106e-02 -2.509999999999999753e-04 3.950000000000000061e-04 2.620000000000000258e-04 5.937919999999999865e-01 6.590089999999999559e-01 -2.183399999999999924e-02 -5.943969999999999532e-01 -6.586100000000000287e-01 2.105100000000000027e-02 3.600000000000000227e-04 2.970000000000000092e-04 2.939999999999999905e-04 5.938499999999999890e-01 6.589420000000000277e-01 -2.132099999999999967e-02 -5.940389999999999837e-01 -6.580329999999999790e-01 2.125099999999999906e-02 7.259999999999999743e-04 -8.000000000000000383e-04 1.749999999999999982e-04 5.933829999999999938e-01 6.584560000000000413e-01 -2.320499999999999993e-02 5.944869999999999877e-01 6.587439999999999962e-01 -2.351400000000000018e-02 -1.869999999999999917e-04 8.799999999999999771e-05 -2.200000000000000078e-04 4.899999999999999842e-04 -1.111999999999999924e-03 -1.530000000000000056e-04 5.935859999999999470e-01 6.580230000000000246e-01 -2.356400000000000161e-02 5.936519999999999575e-01 6.591559999999999642e-01 -2.301100000000000020e-02 1.129999999999999955e-04 2.259999999999999910e-04 -4.229999999999999819e-04 -1.179999999999999951e-04 -4.009999999999999893e-04 3.100000000000000135e-05 5.937970000000000192e-01 6.584560000000000413e-01 -2.359100000000000086e-02 5.938649999999999762e-01 6.589620000000000477e-01 -2.326999999999999902e-02 5.479999999999999845e-04 -4.300000000000000165e-05 -6.780000000000000002e-04 3.429999999999999889e-04 3.179999999999999776e-04 -3.269999999999999795e-04 5.941750000000000087e-01 6.600530000000000008e-01 -2.298700000000000049e-02 -5.300000000000000078e-05 -6.000000000000000152e-06 -8.170000000000000179e-04 -5.944030000000000147e-01 -6.596009999999999929e-01 2.204899999999999916e-02 5.929259999999999531e-01 6.587509999999999755e-01 -2.305300000000000057e-02 2.400000000000000061e-04 -3.780000000000000265e-04 -3.310000000000000225e-04 -5.940790000000000237e-01 -6.596269999999999634e-01 2.160000000000000114e-02 5.939689999999999692e-01 6.588730000000000420e-01 -2.289199999999999915e-02 2.090000000000000115e-04 -2.680000000000000090e-04 -8.760000000000000425e-04 -5.935850000000000293e-01 -6.590329999999999799e-01 2.474499999999999963e-02 -5.941809999999999592e-01 -6.590110000000000134e-01 2.378600000000000159e-02 -5.931699999999999751e-01 -6.588519999999999932e-01 2.425000000000000072e-02 -5.939200000000000035e-01 -6.593839999999999701e-01 2.370900000000000091e-02 -5.937519999999999465e-01 -6.587060000000000137e-01 2.422900000000000054e-02 -5.936940000000000550e-01 -6.586870000000000225e-01 2.388799999999999951e-02 -5.935359999999999525e-01 -6.593869999999999454e-01 2.318399999999999975e-02 -5.938780000000000170e-01 -6.599260000000000126e-01 2.375999999999999987e-02 -5.941699999999999759e-01 -6.591439999999999522e-01 2.343900000000000150e-02 6.750000000000000357e-04 -2.249999999999999938e-04 -4.690000000000000158e-04 -5.936000000000000165e-01 -6.593569999999999709e-01 2.279499999999999929e-02 5.929149999999999698e-01 6.587340000000000417e-01 -2.195300000000000029e-02 5.937409999999999632e-01 6.595830000000000304e-01 -2.318699999999999928e-02 3.690000000000000246e-04 -5.569999999999999864e-04 -7.709999999999999840e-04 -5.943829999999999947e-01 -6.589260000000000117e-01 2.183099999999999971e-02 2.349999999999999930e-04 -1.099999999999999971e-05 -7.919999999999999523e-04 -5.940590000000000037e-01 -6.597549999999999804e-01 2.254199999999999954e-02 5.930459999999999621e-01 6.589350000000000485e-01 -2.267100000000000018e-02 5.936850000000000183e-01 6.598370000000000068e-01 -2.271600000000000008e-02 -1.479999999999999925e-04 -3.750000000000000078e-04 -1.111000000000000008e-03 -5.942760000000000264e-01 -6.590540000000000287e-01 2.185000000000000137e-02 4.899999999999999842e-05 -1.749999999999999982e-04 -1.469999999999999953e-04 -5.940969999999999862e-01 -6.590759999999999952e-01 2.219300000000000092e-02 5.935279999999999445e-01 6.590300000000000047e-01 -2.283200000000000160e-02 5.933979999999999810e-01 6.592090000000000449e-01 -2.263400000000000134e-02 -3.899999999999999929e-05 -3.519999999999999908e-04 -1.198000000000000063e-03 -5.942720000000000224e-01 -6.585180000000000478e-01 2.252499999999999988e-02 7.100000000000000191e-04 -3.959999999999999762e-04 6.000000000000000152e-05 5.936120000000000285e-01 6.584240000000000093e-01 -2.261900000000000022e-02 -5.938809999999999922e-01 -6.593160000000000132e-01 2.153800000000000159e-02 6.000000000000000152e-06 -3.339999999999999870e-04 -1.781999999999999947e-03 5.938550000000000217e-01 6.591460000000000097e-01 -2.386299999999999880e-02 5.943260000000000209e-01 6.583679999999999533e-01 -2.332899999999999904e-02 -5.936679999999999735e-01 -6.587190000000000545e-01 2.257100000000000078e-02 5.942100000000000160e-01 6.595069999999999544e-01 -2.223299999999999929e-02 1.369999999999999961e-04 -1.330000000000000073e-04 -3.980000000000000248e-04 -5.943330000000000002e-01 -6.587880000000000402e-01 2.260900000000000062e-02 5.936150000000000038e-01 6.592540000000000067e-01 -2.227300000000000113e-02 3.069999999999999812e-04 -3.300000000000000253e-05 -3.409999999999999945e-04 -5.939109999999999667e-01 -6.586729999999999530e-01 2.234799999999999981e-02 5.938029999999999697e-01 6.594200000000000061e-01 -2.166300000000000170e-02 1.299999999999999920e-05 1.730000000000000038e-04 -7.700000000000000139e-05 3.339999999999999870e-04 1.100000000000000039e-04 4.719999999999999803e-04 -5.937710000000000488e-01 -6.596600000000000241e-01 2.162100000000000133e-02 5.937010000000000343e-01 6.590890000000000359e-01 -2.123299999999999840e-02 5.937289999999999512e-01 6.590019999999999767e-01 -2.130800000000000055e-02 -8.899999999999999491e-05 4.459999999999999989e-04 -4.749999999999999990e-04 -5.948820000000000219e-01 -6.592869999999999564e-01 2.155500000000000124e-02 4.290000000000000193e-04 -3.919999999999999873e-04 2.680000000000000090e-04 -5.943119999999999514e-01 -6.586910000000000265e-01 2.184099999999999930e-02 5.938750000000000417e-01 6.587819999999999787e-01 -2.081600000000000117e-02 5.938369999999999482e-01 6.590679999999999872e-01 -2.117300000000000085e-02 9.000000000000000567e-05 -4.600000000000000004e-05 -1.610000000000000103e-04 -5.939729999999999732e-01 -6.593120000000000092e-01 2.166900000000000076e-02 3.159999999999999832e-04 -3.379999999999999758e-04 3.089999999999999756e-04 -5.939579999999999860e-01 -6.591249999999999609e-01 2.127700000000000077e-02 5.937019999999999520e-01 6.589270000000000405e-01 -2.111400000000000082e-02 5.931370000000000253e-01 6.598079999999999501e-01 -2.106900000000000092e-02 -7.110000000000000434e-04 1.469999999999999953e-04 -5.270000000000000162e-04 -5.942140000000000200e-01 -6.597190000000000554e-01 2.183200000000000071e-02 5.937130000000000463e-01 6.593210000000000459e-01 -2.410299999999999943e-02 -6.769999999999999759e-04 5.500000000000000196e-05 -1.162999999999999971e-03 5.938879999999999715e-01 6.592999999999999972e-01 -2.439399999999999902e-02 2.689999999999999791e-04 -4.189999999999999931e-04 -1.286000000000000034e-03 5.939820000000000100e-01 6.599140000000000006e-01 -2.426299999999999985e-02 8.200000000000000095e-05 -3.559999999999999797e-04 -1.742000000000000059e-03 7.929999999999999766e-04 -1.869999999999999917e-04 -1.311000000000000099e-03 5.934650000000000203e-01 6.588969999999999549e-01 -2.363099999999999923e-02 5.939520000000000355e-01 6.590730000000000199e-01 -2.457900000000000015e-02 7.200000000000000182e-05 2.919999999999999961e-04 -1.747000000000000072e-03 -5.000000000000000409e-06 -4.319999999999999838e-04 -3.890000000000000228e-04 5.940320000000000045e-01 6.588659999999999517e-01 -2.360800000000000051e-02 5.939349999999999907e-01 6.588610000000000300e-01 -2.404699999999999893e-02 1.060000000000000016e-04 1.500000000000000038e-05 -8.940000000000000464e-04 4.699999999999999859e-04 -2.530000000000000239e-04 -7.200000000000000453e-04 -5.941600000000000215e-01 -6.593419999999999837e-01 2.267900000000000124e-02 -3.930000000000000117e-04 4.350000000000000026e-04 -1.564999999999999985e-03 5.930779999999999941e-01 6.596140000000000336e-01 -2.189699999999999980e-02 5.933770000000000433e-01 6.593010000000000259e-01 -2.271199999999999955e-02 -5.938520000000000465e-01 -6.589770000000000350e-01 2.316000000000000003e-02 4.409999999999999858e-04 -1.540000000000000028e-04 6.700000000000000226e-05 -5.934049999999999603e-01 -6.595339999999999536e-01 2.279199999999999976e-02 -5.937829999999999497e-01 -6.594729999999999759e-01 2.366100000000000148e-02 -5.938149999999999817e-01 -6.597349999999999604e-01 2.360200000000000145e-02 -5.936550000000000438e-01 -6.591110000000000024e-01 2.400599999999999956e-02 -5.945319999999999494e-01 -6.586239999999999872e-01 2.229499999999999885e-02 -5.936940000000000550e-01 -6.582179999999999698e-01 2.404299999999999840e-02 -5.939269999999999827e-01 -6.589300000000000157e-01 2.283900000000000166e-02 -5.934160000000000545e-01 -6.586509999999999865e-01 2.394900000000000154e-02 -5.937879999999999825e-01 -6.591110000000000024e-01 2.273000000000000020e-02 -5.931870000000000198e-01 -6.589249999999999829e-01 2.297199999999999936e-02 5.935719999999999885e-01 6.583400000000000363e-01 -2.283400000000000013e-02 -5.500000000000000196e-05 -2.429999999999999977e-04 -4.240000000000000062e-04 -5.939219999999999500e-01 -6.585830000000000295e-01 2.367400000000000060e-02 5.937080000000000135e-01 6.577709999999999946e-01 -2.330399999999999833e-02 2.269999999999999882e-04 -6.329999999999999906e-04 -2.599999999999999840e-05 -5.941579999999999639e-01 -6.586220000000000407e-01 2.289700000000000069e-02 5.932720000000000216e-01 6.583620000000000028e-01 -2.317800000000000069e-02 7.299999999999999903e-05 -7.600000000000000418e-05 -7.169999999999999724e-04 2.329999999999999986e-04 -2.390000000000000089e-04 -8.600000000000000331e-05 -5.935430000000000428e-01 -6.589589999999999614e-01 2.285099999999999978e-02 5.928020000000000511e-01 6.593799999999999661e-01 -2.250999999999999876e-02 5.934469999999999468e-01 6.593550000000000244e-01 -2.247400000000000092e-02 2.559999999999999884e-04 9.890000000000000787e-04 -1.165999999999999936e-03 -5.940429999999999877e-01 -6.591270000000000184e-01 2.222700000000000023e-02 4.650000000000000270e-04 1.230000000000000082e-04 1.649999999999999991e-04 -5.940149999999999597e-01 -6.584400000000000253e-01 2.314599999999999991e-02 5.939269999999999827e-01 6.595109999999999584e-01 -2.251900000000000082e-02 5.936059999999999670e-01 6.592289999999999539e-01 -2.236700000000000146e-02 3.300000000000000253e-05 1.890000000000000133e-04 -9.409999999999999962e-04 -5.938930000000000042e-01 -6.592000000000000082e-01 2.330399999999999833e-02