9.718492510000000806e+00 0.000000000000000000e+00 0.000000000000000000e+00 0.000000000000000000e+00 1.683292352999999864e+01 0.000000000000000000e+00 0.000000000000000000e+00 0.000000000000000000e+00 1.921651041000000149e+01
9.718492510000000806e+00 0.000000000000000000e+00 0.000000000000000000e+00 0.000000000000000000e+00 1.683292352999999864e+01 0.000000000000000000e+00 0.000000000000000000e+00 0.000000000000000000e+00 1.921651041000000149e+01
9.718492510000000806e+00 0.000000000000000000e+00 0.000000000000000000e+00 0.000000000000000000e+00 1.683292352999999864e+01 0.000000000000000000e+00 0.000000000000000000e+00 0.000000000000000000e+00 1.921651041000000149e+01
9.718492510000000806e+00 0.000000000000000000e+00 0.000000000000000000e+00 0.000000000000000000e+00 1.683292352999999864e+01 0.000000000000000000e+00 0.000000000000000000e+00 0.000000000000000000e+00 1.921651041000000149e+01
9.718492510000000806e+00 0.000000000000000000e+00 0.000000000000000000e+00 0.000000000000000000e+00 1.683292352999999864e+01 0.000000000000000000e+00 0.000000000000000000e+00 0.000000000000000000e+00 1.921651041000000149e+01
