1.299999999999999886e-04 1.200000000000000030e-04 4.429219999999999935e+00 1.619879999999999987e+00 2.805600000000000094e+00 4.429219999999999935e+00 1.399999999999999877e-04 3.740439999999999987e+00 1.951140000000000096e+00 1.619890000000000052e+00 9.349499999999999478e-01 1.951140000000000096e+00 3.239619999999999944e+00 1.200000000000000030e-04 4.429219999999999935e+00 4.859370000000000189e+00 2.805600000000000094e+00 4.429219999999999935e+00 3.239640000000000075e+00 3.740439999999999987e+00 1.951140000000000096e+00 4.859390000000000320e+00 9.349499999999999478e-01 1.951140000000000096e+00 6.479119999999999990e+00 1.200000000000000030e-04 4.429219999999999935e+00 8.098869999999999791e+00 2.805600000000000094e+00 4.429219999999999935e+00 6.479140000000000121e+00 3.740439999999999987e+00 1.951140000000000096e+00 8.098890000000000811e+00 9.349499999999999478e-01 1.951140000000000096e+00 1.299999999999999886e-04 5.611089999999999911e+00 4.429219999999999935e+00 1.619879999999999987e+00 8.416570000000000107e+00 4.429219999999999935e+00 1.399999999999999877e-04 9.351419999999999177e+00 1.951140000000000096e+00 1.619890000000000052e+00 6.545930000000000248e+00 1.951140000000000096e+00 3.239619999999999944e+00 5.611089999999999911e+00 4.429219999999999935e+00 4.859370000000000189e+00 8.416570000000000107e+00 4.429219999999999935e+00 3.239640000000000075e+00 9.351419999999999177e+00 1.951140000000000096e+00 4.859390000000000320e+00 6.545930000000000248e+00 1.951140000000000096e+00 6.479119999999999990e+00 5.611089999999999911e+00 4.429219999999999935e+00 8.098869999999999791e+00 8.416570000000000107e+00 4.429219999999999935e+00 6.479140000000000121e+00 9.351419999999999177e+00 1.951140000000000096e+00 8.098890000000000811e+00 6.545930000000000248e+00 1.951140000000000096e+00 1.299999999999999886e-04 1.122207000000000043e+01 4.429219999999999935e+00 1.619879999999999987e+00 1.402754999999999974e+01 4.429219999999999935e+00 1.399999999999999877e-04 1.496238999999999919e+01 1.951140000000000096e+00 1.619890000000000052e+00 1.215690000000000026e+01 1.951140000000000096e+00 3.239619999999999944e+00 1.122207000000000043e+01 4.429219999999999935e+00 4.859370000000000189e+00 1.402754999999999974e+01 4.429219999999999935e+00 3.239640000000000075e+00 1.496238999999999919e+01 1.951140000000000096e+00 4.859390000000000320e+00 1.215690000000000026e+01 1.951140000000000096e+00 6.479119999999999990e+00 1.122207000000000043e+01 4.429219999999999935e+00 8.098869999999999791e+00 1.402754999999999974e+01 4.429219999999999935e+00 6.479140000000000121e+00 1.496238999999999919e+01 1.951140000000000096e+00 8.098890000000000811e+00 1.215690000000000026e+01 1.951140000000000096e+00 1.299999999999999886e-04 1.200000000000000030e-04 1.083472000000000079e+01 1.619879999999999987e+00 2.805600000000000094e+00 1.083472000000000079e+01 1.399999999999999877e-04 3.740439999999999987e+00 8.356640000000000512e+00 1.619890000000000052e+00 9.349499999999999478e-01 8.356640000000000512e+00 3.239619999999999944e+00 1.200000000000000030e-04 1.083472000000000079e+01 4.859370000000000189e+00 2.805600000000000094e+00 1.083472000000000079e+01 3.239640000000000075e+00 3.740439999999999987e+00 8.356640000000000512e+00 4.859390000000000320e+00 9.349499999999999478e-01 8.356640000000000512e+00 6.479119999999999990e+00 1.200000000000000030e-04 1.083472000000000079e+01 8.098869999999999791e+00 2.805600000000000094e+00 1.083472000000000079e+01 6.479140000000000121e+00 3.740439999999999987e+00 8.356640000000000512e+00 8.098890000000000811e+00 9.349499999999999478e-01 8.356640000000000512e+00 1.299999999999999886e-04 5.611089999999999911e+00 1.083472000000000079e+01 1.619879999999999987e+00 8.416570000000000107e+00 1.083472000000000079e+01 1.399999999999999877e-04 9.351419999999999177e+00 8.356640000000000512e+00 1.619890000000000052e+00 6.545930000000000248e+00 8.356640000000000512e+00 3.239619999999999944e+00 5.611089999999999911e+00 1.083472000000000079e+01 4.859370000000000189e+00 8.416570000000000107e+00 1.083472000000000079e+01 3.239640000000000075e+00 9.351419999999999177e+00 8.356640000000000512e+00 4.859390000000000320e+00 6.545930000000000248e+00 8.356640000000000512e+00 6.479119999999999990e+00 5.611089999999999911e+00 1.083472000000000079e+01 8.098869999999999791e+00 8.416570000000000107e+00 1.083472000000000079e+01 6.479140000000000121e+00 9.351419999999999177e+00 8.356640000000000512e+00 8.098890000000000811e+00 6.545930000000000248e+00 8.356640000000000512e+00 1.299999999999999886e-04 1.122207000000000043e+01 1.083472000000000079e+01 1.619879999999999987e+00 1.402754999999999974e+01 1.083472000000000079e+01 1.399999999999999877e-04 1.496238999999999919e+01 8.356640000000000512e+00 1.619890000000000052e+00 1.215690000000000026e+01 8.356640000000000512e+00 3.239619999999999944e+00 1.122207000000000043e+01 1.083472000000000079e+01 4.859370000000000189e+00 1.402754999999999974e+01 1.083472000000000079e+01 3.239640000000000075e+00 1.496238999999999919e+01 8.356640000000000512e+00 4.859390000000000320e+00 1.215690000000000026e+01 8.356640000000000512e+00 6.479119999999999990e+00 1.122207000000000043e+01 1.083472000000000079e+01 8.098869999999999791e+00 1.402754999999999974e+01 1.083472000000000079e+01 6.479140000000000121e+00 1.496238999999999919e+01 8.356640000000000512e+00 8.098890000000000811e+00 1.215690000000000026e+01 8.356640000000000512e+00 1.299999999999999886e-04 1.200000000000000030e-04 1.724023000000000039e+01 1.619879999999999987e+00 2.805600000000000094e+00 1.724023000000000039e+01 1.399999999999999877e-04 3.740439999999999987e+00 1.476214000000000048e+01 1.619890000000000052e+00 9.349499999999999478e-01 1.476214000000000048e+01 3.239619999999999944e+00 1.200000000000000030e-04 1.724023000000000039e+01 4.859370000000000189e+00 2.805600000000000094e+00 1.724023000000000039e+01 3.239640000000000075e+00 3.740439999999999987e+00 1.476214000000000048e+01 4.859390000000000320e+00 9.349499999999999478e-01 1.476214000000000048e+01 6.479119999999999990e+00 1.200000000000000030e-04 1.724023000000000039e+01 8.098869999999999791e+00 2.805600000000000094e+00 1.724023000000000039e+01 6.479140000000000121e+00 3.740439999999999987e+00 1.476214000000000048e+01 8.098890000000000811e+00 9.349499999999999478e-01 1.476214000000000048e+01 1.299999999999999886e-04 5.611089999999999911e+00 1.724023000000000039e+01 1.619879999999999987e+00 8.416570000000000107e+00 1.724023000000000039e+01 1.399999999999999877e-04 9.351419999999999177e+00 1.476214000000000048e+01 1.619890000000000052e+00 6.545930000000000248e+00 1.476214000000000048e+01 3.239619999999999944e+00 5.611089999999999911e+00 1.724023000000000039e+01 4.859370000000000189e+00 8.416570000000000107e+00 1.724023000000000039e+01 3.239640000000000075e+00 9.351419999999999177e+00 1.476214000000000048e+01 4.859390000000000320e+00 6.545930000000000248e+00 1.476214000000000048e+01 6.479119999999999990e+00 5.611089999999999911e+00 1.724023000000000039e+01 8.098869999999999791e+00 8.416570000000000107e+00 1.724023000000000039e+01 6.479140000000000121e+00 9.351419999999999177e+00 1.476214000000000048e+01 8.098890000000000811e+00 6.545930000000000248e+00 1.476214000000000048e+01 1.299999999999999886e-04 1.122207000000000043e+01 1.724023000000000039e+01 1.619879999999999987e+00 1.402754999999999974e+01 1.724023000000000039e+01 1.399999999999999877e-04 1.496238999999999919e+01 1.476214000000000048e+01 1.619890000000000052e+00 1.215690000000000026e+01 1.476214000000000048e+01 3.239619999999999944e+00 1.122207000000000043e+01 1.724023000000000039e+01 4.859370000000000189e+00 1.402754999999999974e+01 1.724023000000000039e+01 3.239640000000000075e+00 1.496238999999999919e+01 1.476214000000000048e+01 4.859390000000000320e+00 1.215690000000000026e+01 1.476214000000000048e+01 6.479119999999999990e+00 1.122207000000000043e+01 1.724023000000000039e+01 8.098869999999999791e+00 1.402754999999999974e+01 1.724023000000000039e+01 6.479140000000000121e+00 1.496238999999999919e+01 1.476214000000000048e+01 8.098890000000000811e+00 1.215690000000000026e+01 1.476214000000000048e+01 1.299999999999999886e-04 1.870260000000000034e+00 3.190249999999999808e+00 1.200000000000000030e-04 3.741229999999999833e+00 5.356700000000000017e+00 1.619890000000000052e+00 2.804819999999999869e+00 1.023800000000000043e+00 1.399999999999999877e-04 5.610299999999999621e+00 1.023789999999999978e+00 1.619879999999999987e+00 4.675779999999999603e+00 3.190240000000000187e+00 1.619869999999999921e+00 9.357400000000000162e-01 5.356720000000000148e+00 3.239630000000000010e+00 1.870260000000000034e+00 3.190249999999999808e+00 3.239619999999999944e+00 3.741229999999999833e+00 5.356700000000000017e+00 4.859390000000000320e+00 2.804819999999999869e+00 1.023800000000000043e+00 3.239640000000000075e+00 5.610299999999999621e+00 1.023789999999999978e+00 4.859379999999999811e+00 4.675779999999999603e+00 3.190240000000000187e+00 4.859370000000000189e+00 9.357400000000000162e-01 5.356720000000000148e+00 6.479129999999999612e+00 1.870260000000000034e+00 3.190249999999999808e+00 6.479119999999999990e+00 3.741229999999999833e+00 5.356700000000000017e+00 8.098890000000000811e+00 2.804819999999999869e+00 1.023800000000000043e+00 6.479140000000000121e+00 5.610299999999999621e+00 1.023789999999999978e+00 8.098869999999999791e+00 4.675779999999999603e+00 3.190240000000000187e+00 8.098869999999999791e+00 9.357400000000000162e-01 5.356720000000000148e+00 1.299999999999999886e-04 7.481239999999999668e+00 3.190249999999999808e+00 1.200000000000000030e-04 9.352199999999999847e+00 5.356700000000000017e+00 1.619890000000000052e+00 8.415789999999999438e+00 1.023800000000000043e+00 1.399999999999999877e-04 1.122128000000000014e+01 1.023789999999999978e+00 1.619879999999999987e+00 1.028675999999999924e+01 3.190240000000000187e+00 1.619869999999999921e+00 6.546710000000000029e+00 5.356720000000000148e+00 3.239630000000000010e+00 7.481239999999999668e+00 3.190249999999999808e+00 3.239619999999999944e+00 9.352199999999999847e+00 5.356700000000000017e+00 4.859390000000000320e+00 8.415789999999999438e+00 1.023800000000000043e+00 3.239640000000000075e+00 1.122128000000000014e+01 1.023789999999999978e+00 4.859379999999999811e+00 1.028675999999999924e+01 3.190240000000000187e+00 4.859370000000000189e+00 6.546710000000000029e+00 5.356720000000000148e+00 6.479129999999999612e+00 7.481239999999999668e+00 3.190249999999999808e+00 6.479119999999999990e+00 9.352199999999999847e+00 5.356700000000000017e+00 8.098890000000000811e+00 8.415789999999999438e+00 1.023800000000000043e+00 6.479140000000000121e+00 1.122128000000000014e+01 1.023789999999999978e+00 8.098869999999999791e+00 1.028675999999999924e+01 3.190240000000000187e+00 8.098869999999999791e+00 6.546710000000000029e+00 5.356720000000000148e+00 1.299999999999999886e-04 1.309220999999999968e+01 3.190249999999999808e+00 1.200000000000000030e-04 1.496317999999999948e+01 5.356700000000000017e+00 1.619890000000000052e+00 1.402677000000000085e+01 1.023800000000000043e+00 1.399999999999999877e-04 1.683224999999999838e+01 1.023789999999999978e+00 1.619879999999999987e+00 1.589772999999999925e+01 3.190240000000000187e+00 1.619869999999999921e+00 1.215769000000000055e+01 5.356720000000000148e+00 3.239630000000000010e+00 1.309220999999999968e+01 3.190249999999999808e+00 3.239619999999999944e+00 1.496317999999999948e+01 5.356700000000000017e+00 4.859390000000000320e+00 1.402677000000000085e+01 1.023800000000000043e+00 3.239640000000000075e+00 1.683224999999999838e+01 1.023789999999999978e+00 4.859379999999999811e+00 1.589772999999999925e+01 3.190240000000000187e+00 4.859370000000000189e+00 1.215769000000000055e+01 5.356720000000000148e+00 6.479129999999999612e+00 1.309220999999999968e+01 3.190249999999999808e+00 6.479119999999999990e+00 1.496317999999999948e+01 5.356700000000000017e+00 8.098890000000000811e+00 1.402677000000000085e+01 1.023800000000000043e+00 6.479140000000000121e+00 1.683224999999999838e+01 1.023789999999999978e+00 8.098869999999999791e+00 1.589772999999999925e+01 3.190240000000000187e+00 8.098869999999999791e+00 1.215769000000000055e+01 5.356720000000000148e+00 1.299999999999999886e-04 1.870260000000000034e+00 9.595750000000000668e+00 1.200000000000000030e-04 3.741229999999999833e+00 1.176220999999999961e+01 1.619890000000000052e+00 2.804819999999999869e+00 7.429310000000000080e+00 1.399999999999999877e-04 5.610299999999999621e+00 7.429289999999999949e+00 1.619879999999999987e+00 4.675779999999999603e+00 9.595739999999999270e+00 1.619869999999999921e+00 9.357400000000000162e-01 1.176223000000000063e+01 3.239630000000000010e+00 1.870260000000000034e+00 9.595750000000000668e+00 3.239619999999999944e+00 3.741229999999999833e+00 1.176220999999999961e+01 4.859390000000000320e+00 2.804819999999999869e+00 7.429310000000000080e+00 3.239640000000000075e+00 5.610299999999999621e+00 7.429289999999999949e+00 4.859379999999999811e+00 4.675779999999999603e+00 9.595739999999999270e+00 4.859370000000000189e+00 9.357400000000000162e-01 1.176223000000000063e+01 6.479129999999999612e+00 1.870260000000000034e+00 9.595750000000000668e+00 6.479119999999999990e+00 3.741229999999999833e+00 1.176220999999999961e+01 8.098890000000000811e+00 2.804819999999999869e+00 7.429310000000000080e+00 6.479140000000000121e+00 5.610299999999999621e+00 7.429289999999999949e+00 8.098869999999999791e+00 4.675779999999999603e+00 9.595739999999999270e+00 8.098869999999999791e+00 9.357400000000000162e-01 1.176223000000000063e+01 1.299999999999999886e-04 7.481239999999999668e+00 9.595750000000000668e+00 1.200000000000000030e-04 9.352199999999999847e+00 1.176220999999999961e+01 1.619890000000000052e+00 8.415789999999999438e+00 7.429310000000000080e+00 1.399999999999999877e-04 1.122128000000000014e+01 7.429289999999999949e+00 1.619879999999999987e+00 1.028675999999999924e+01 9.595739999999999270e+00 1.619869999999999921e+00 6.546710000000000029e+00 1.176223000000000063e+01 3.239630000000000010e+00 7.481239999999999668e+00 9.595750000000000668e+00 3.239619999999999944e+00 9.352199999999999847e+00 1.176220999999999961e+01 4.859390000000000320e+00 8.415789999999999438e+00 7.429310000000000080e+00 3.239640000000000075e+00 1.122128000000000014e+01 7.429289999999999949e+00 4.859379999999999811e+00 1.028675999999999924e+01 9.595739999999999270e+00 4.859370000000000189e+00 6.546710000000000029e+00 1.176223000000000063e+01 6.479129999999999612e+00 7.481239999999999668e+00 9.595750000000000668e+00 6.479119999999999990e+00 9.352199999999999847e+00 1.176220999999999961e+01 8.098890000000000811e+00 8.415789999999999438e+00 7.429310000000000080e+00 6.479140000000000121e+00 1.122128000000000014e+01 7.429289999999999949e+00 8.098869999999999791e+00 1.028675999999999924e+01 9.595739999999999270e+00 8.098869999999999791e+00 6.546710000000000029e+00 1.176223000000000063e+01 1.299999999999999886e-04 1.309220999999999968e+01 9.595750000000000668e+00 1.200000000000000030e-04 1.496317999999999948e+01 1.176220999999999961e+01 1.619890000000000052e+00 1.402677000000000085e+01 7.429310000000000080e+00 1.399999999999999877e-04 1.683224999999999838e+01 7.429289999999999949e+00 1.619879999999999987e+00 1.589772999999999925e+01 9.595739999999999270e+00 1.619869999999999921e+00 1.215769000000000055e+01 1.176223000000000063e+01 3.239630000000000010e+00 1.309220999999999968e+01 9.595750000000000668e+00 3.239619999999999944e+00 1.496317999999999948e+01 1.176220999999999961e+01 4.859390000000000320e+00 1.402677000000000085e+01 7.429310000000000080e+00 3.239640000000000075e+00 1.683224999999999838e+01 7.429289999999999949e+00 4.859379999999999811e+00 1.589772999999999925e+01 9.595739999999999270e+00 4.859370000000000189e+00 1.215769000000000055e+01 1.176223000000000063e+01 6.479129999999999612e+00 1.309220999999999968e+01 9.595750000000000668e+00 6.479119999999999990e+00 1.496317999999999948e+01 1.176220999999999961e+01 8.098890000000000811e+00 1.402677000000000085e+01 7.429310000000000080e+00 6.479140000000000121e+00 1.683224999999999838e+01 7.429289999999999949e+00 8.098869999999999791e+00 1.589772999999999925e+01 9.595739999999999270e+00 8.098869999999999791e+00 1.215769000000000055e+01 1.176223000000000063e+01 1.299999999999999886e-04 1.870260000000000034e+00 1.600125999999999848e+01 1.200000000000000030e-04 3.741229999999999833e+00 1.816770999999999958e+01 1.619890000000000052e+00 2.804819999999999869e+00 1.383480999999999916e+01 1.399999999999999877e-04 5.610299999999999621e+00 1.383478999999999992e+01 1.619879999999999987e+00 4.675779999999999603e+00 1.600123999999999924e+01 1.619869999999999921e+00 9.357400000000000162e-01 1.816772999999999882e+01 3.239630000000000010e+00 1.870260000000000034e+00 1.600125999999999848e+01 3.239619999999999944e+00 3.741229999999999833e+00 1.816770999999999958e+01 4.859390000000000320e+00 2.804819999999999869e+00 1.383480999999999916e+01 3.239640000000000075e+00 5.610299999999999621e+00 1.383478999999999992e+01 4.859379999999999811e+00 4.675779999999999603e+00 1.600123999999999924e+01 4.859370000000000189e+00 9.357400000000000162e-01 1.816772999999999882e+01 6.479129999999999612e+00 1.870260000000000034e+00 1.600125999999999848e+01 6.479119999999999990e+00 3.741229999999999833e+00 1.816770999999999958e+01 8.098890000000000811e+00 2.804819999999999869e+00 1.383480999999999916e+01 6.479140000000000121e+00 5.610299999999999621e+00 1.383478999999999992e+01 8.098869999999999791e+00 4.675779999999999603e+00 1.600123999999999924e+01 8.098869999999999791e+00 9.357400000000000162e-01 1.816772999999999882e+01 1.299999999999999886e-04 7.481239999999999668e+00 1.600125999999999848e+01 1.200000000000000030e-04 9.352199999999999847e+00 1.816770999999999958e+01 1.619890000000000052e+00 8.415789999999999438e+00 1.383480999999999916e+01 1.399999999999999877e-04 1.122128000000000014e+01 1.383478999999999992e+01 1.619879999999999987e+00 1.028675999999999924e+01 1.600123999999999924e+01 1.619869999999999921e+00 6.546710000000000029e+00 1.816772999999999882e+01 3.239630000000000010e+00 7.481239999999999668e+00 1.600125999999999848e+01 3.239619999999999944e+00 9.352199999999999847e+00 1.816770999999999958e+01 4.859390000000000320e+00 8.415789999999999438e+00 1.383480999999999916e+01 3.239640000000000075e+00 1.122128000000000014e+01 1.383478999999999992e+01 4.859379999999999811e+00 1.028675999999999924e+01 1.600123999999999924e+01 4.859370000000000189e+00 6.546710000000000029e+00 1.816772999999999882e+01 6.479129999999999612e+00 7.481239999999999668e+00 1.600125999999999848e+01 6.479119999999999990e+00 9.352199999999999847e+00 1.816770999999999958e+01 8.098890000000000811e+00 8.415789999999999438e+00 1.383480999999999916e+01 6.479140000000000121e+00 1.122128000000000014e+01 1.383478999999999992e+01 8.098869999999999791e+00 1.028675999999999924e+01 1.600123999999999924e+01 8.098869999999999791e+00 6.546710000000000029e+00 1.816772999999999882e+01 1.299999999999999886e-04 1.309220999999999968e+01 1.600125999999999848e+01 1.200000000000000030e-04 1.496317999999999948e+01 1.816770999999999958e+01 1.619890000000000052e+00 1.402677000000000085e+01 1.383480999999999916e+01 1.399999999999999877e-04 1.683224999999999838e+01 1.383478999999999992e+01 1.619879999999999987e+00 1.589772999999999925e+01 1.600123999999999924e+01 1.619869999999999921e+00 1.215769000000000055e+01 1.816772999999999882e+01 3.239630000000000010e+00 1.309220999999999968e+01 1.600125999999999848e+01 3.239619999999999944e+00 1.496317999999999948e+01 1.816770999999999958e+01 4.859390000000000320e+00 1.402677000000000085e+01 1.383480999999999916e+01 3.239640000000000075e+00 1.683224999999999838e+01 1.383478999999999992e+01 4.859379999999999811e+00 1.589772999999999925e+01 1.600123999999999924e+01 4.859370000000000189e+00 1.215769000000000055e+01 1.816772999999999882e+01 6.479129999999999612e+00 1.309220999999999968e+01 1.600125999999999848e+01 6.479119999999999990e+00 1.496317999999999948e+01 1.816770999999999958e+01 8.098890000000000811e+00 1.402677000000000085e+01 1.383480999999999916e+01 6.479140000000000121e+00 1.683224999999999838e+01 1.383478999999999992e+01 8.098869999999999791e+00 1.589772999999999925e+01 1.600123999999999924e+01 8.098869999999999791e+00 1.215769000000000055e+01 1.816772999999999882e+01