-2.795607952349999778e+03
-2.795575026099999832e+03
-2.795474488939999901e+03
-2.795307174340000074e+03
-2.795074257209999814e+03
