-1.060000000000000016e-04 1.672000000000000092e-03 -1.392599999999999914e-02 -1.200000000000000030e-05 1.007000000000000083e-03 -1.360399999999999977e-02 -1.530000000000000056e-04 -1.807999999999999928e-03 1.349299999999999979e-02 -4.399999999999999886e-05 -2.167000000000000089e-03 1.389100000000000057e-02 -5.500000000000000196e-05 1.685999999999999999e-03 -1.396900000000000051e-02 0.000000000000000000e+00 1.015999999999999976e-03 -1.361700000000000063e-02 6.700000000000000226e-05 -1.863000000000000073e-03 1.348899999999999925e-02 -2.329999999999999986e-04 -2.049000000000000040e-03 1.382599999999999975e-02 -5.199999999999999680e-05 1.685999999999999999e-03 -1.385499999999999926e-02 -6.999999999999999895e-06 9.859999999999998974e-04 -1.352800000000000009e-02 -8.299999999999999815e-05 -1.843000000000000020e-03 1.347600000000000013e-02 -1.759999999999999954e-04 -2.064999999999999995e-03 1.381499999999999916e-02 -5.199999999999999680e-05 2.737999999999999982e-03 -1.355300000000000081e-02 3.499999999999999693e-05 1.928999999999999942e-03 -1.405700000000000005e-02 -3.449999999999999833e-04 -2.049000000000000040e-03 1.409200000000000036e-02 -7.399999999999999623e-05 -2.720999999999999894e-03 1.385300000000000073e-02 1.100000000000000039e-04 2.762999999999999831e-03 -1.360500000000000077e-02 5.899999999999999754e-05 2.014000000000000165e-03 -1.405099999999999925e-02 -1.100000000000000039e-04 -2.142999999999999940e-03 1.419600000000000029e-02 -3.300000000000000253e-05 -2.723999999999999859e-03 1.392900000000000041e-02 6.299999999999999990e-05 2.798000000000000140e-03 -1.353299999999999989e-02 -3.190000000000000019e-04 1.965999999999999866e-03 -1.402199999999999974e-02 -1.699999999999999987e-05 -2.030999999999999819e-03 1.416199999999999924e-02 -7.899999999999999579e-05 -2.605000000000000111e-03 1.384900000000000020e-02 -8.299999999999999815e-05 1.023000000000000038e-03 -1.359400000000000018e-02 6.000000000000000152e-06 2.798000000000000140e-03 -1.357799999999999979e-02 -1.710000000000000094e-04 -2.746999999999999876e-03 1.404299999999999993e-02 -1.939999999999999993e-04 -1.755000000000000050e-03 1.368499999999999925e-02 2.500000000000000120e-05 8.549999999999999658e-04 -1.353999999999999995e-02 5.700000000000000314e-05 2.818000000000000192e-03 -1.359299999999999918e-02 -1.140000000000000063e-04 -2.517999999999999839e-03 1.408200000000000077e-02 1.240000000000000054e-04 -1.856000000000000011e-03 1.371600000000000076e-02 5.099999999999999960e-05 7.550000000000000287e-04 -1.352500000000000056e-02 3.000000000000000076e-05 2.720000000000000195e-03 -1.362499999999999996e-02 1.039999999999999936e-04 -2.693000000000000081e-03 1.400799999999999962e-02 -8.000000000000000654e-05 -1.742999999999999975e-03 1.359499999999999945e-02 4.500000000000000283e-05 1.925000000000000062e-03 -1.349900000000000058e-02 -1.689999999999999879e-04 1.917000000000000084e-03 -1.339800000000000019e-02 -1.979999999999999881e-04 -2.020000000000000094e-03 1.357399999999999926e-02 -1.969999999999999909e-04 -1.776999999999999934e-03 1.538499999999999937e-02 3.199999999999999855e-05 1.853999999999999962e-03 -1.354400000000000048e-02 2.059999999999999928e-04 1.958999999999999804e-03 -1.335800000000000008e-02 5.000000000000000240e-05 -1.994999999999999812e-03 1.358700000000000012e-02 9.000000000000000228e-06 -1.773000000000000053e-03 1.532999999999999988e-02 -4.699999999999999724e-05 1.840999999999999972e-03 -1.354799999999999928e-02 -1.060000000000000016e-04 2.052000000000000005e-03 -1.334899999999999975e-02 8.500000000000000611e-05 -1.988000000000000184e-03 1.356599999999999993e-02 -2.390000000000000089e-04 -1.683999999999999950e-03 1.525499999999999946e-02 7.999999999999999638e-06 1.820000000000000003e-03 -1.324600000000000083e-02 1.699999999999999987e-05 1.817000000000000039e-03 -1.344300000000000009e-02 -2.100000000000000087e-04 -1.665999999999999946e-03 1.554900000000000032e-02 -1.169999999999999979e-04 -4.920000000000000328e-04 1.300800000000000047e-02 -4.899999999999999842e-05 1.974000000000000060e-03 -1.328999999999999973e-02 2.199999999999999943e-05 1.842000000000000104e-03 -1.336099999999999961e-02 -3.119999999999999944e-04 -1.647999999999999942e-03 1.562699999999999853e-02 5.099999999999999960e-05 -7.240000000000000342e-04 1.301000000000000073e-02 -6.000000000000000152e-06 1.706999999999999967e-03 -1.325100000000000063e-02 -4.000000000000000327e-05 1.918000000000000000e-03 -1.346299999999999927e-02 1.010000000000000020e-04 -1.600000000000000077e-03 1.551199999999999975e-02 -9.399999999999999448e-05 -5.140000000000000254e-04 1.289900000000000074e-02 9.999999999999999547e-07 1.796999999999999986e-03 -1.331599999999999971e-02 9.000000000000000228e-06 1.786999999999999960e-03 -1.341099999999999931e-02 -6.899999999999999667e-05 -3.989999999999999949e-04 1.290999999999999960e-02 -1.259999999999999998e-04 -1.920999999999999965e-03 1.353599999999999942e-02 -1.379999999999999933e-04 1.755999999999999965e-03 -1.329200000000000000e-02 3.499999999999999693e-05 1.975000000000000193e-03 -1.339500000000000066e-02 -7.100000000000000462e-05 -3.699999999999999947e-04 1.295199999999999997e-02 9.399999999999999448e-05 -1.897999999999999948e-03 1.353599999999999942e-02 6.799999999999999946e-05 1.745999999999999939e-03 -1.330300000000000059e-02 -1.140000000000000063e-04 1.827999999999999981e-03 -1.341900000000000037e-02 -3.199999999999999855e-05 -2.889999999999999774e-04 1.291899999999999993e-02 -1.900000000000000105e-05 -1.943000000000000066e-03 1.348500000000000046e-02 -1.689999999999999879e-04 1.726000000000000104e-03 -1.299200000000000008e-02 -3.499999999999999693e-05 2.833000000000000015e-03 -1.292800000000000026e-02 -2.000000000000000096e-04 -1.229000000000000058e-03 1.366599999999999933e-02 -3.020000000000000223e-04 -1.342000000000000094e-03 1.397699999999999984e-02 5.800000000000000034e-05 1.701999999999999954e-03 -1.289399999999999921e-02 5.800000000000000034e-05 2.827000000000000086e-03 -1.290499999999999980e-02 9.100000000000000287e-05 -1.232000000000000022e-03 1.372899999999999988e-02 8.700000000000000051e-05 -1.234999999999999987e-03 1.396999999999999978e-02 1.679999999999999907e-04 1.567000000000000033e-03 -1.287100000000000050e-02 4.100000000000000047e-05 2.717999999999999930e-03 -1.290900000000000034e-02 7.999999999999999638e-06 -1.214000000000000018e-03 1.354200000000000022e-02 2.099999999999999884e-05 -1.343999999999999926e-03 1.397400000000000031e-02 -1.500000000000000038e-05 9.799999999999999684e-04 -1.280700000000000068e-02 4.500000000000000283e-05 1.734000000000000081e-03 -1.285999999999999990e-02 -2.010000000000000068e-04 -1.077000000000000049e-03 1.404999999999999999e-02 -1.299999999999999886e-04 -1.796999999999999986e-03 1.403000000000000080e-02 2.799999999999999958e-05 1.010999999999999963e-03 -1.279699999999999935e-02 3.000000000000000076e-06 1.779999999999999898e-03 -1.290900000000000034e-02 -4.699999999999999724e-05 -1.103999999999999947e-03 1.412300000000000014e-02 3.699999999999999811e-05 -1.843000000000000020e-03 1.404799999999999972e-02 6.799999999999999946e-05 9.629999999999999888e-04 -1.286299999999999943e-02 -7.999999999999999638e-06 1.734999999999999997e-03 -1.286799999999999923e-02 4.399999999999999886e-05 -1.025000000000000086e-03 1.400799999999999962e-02 -1.119999999999999983e-04 -1.789999999999999925e-03 1.402499999999999927e-02 -6.999999999999999387e-05 2.730999999999999921e-03 -1.307999999999999961e-02 -1.099999999999999971e-05 9.399999999999999719e-04 -1.323399999999999924e-02 -1.900000000000000105e-04 -1.936000000000000004e-03 1.405900000000000032e-02 -9.500000000000000523e-05 -1.082999999999999978e-03 1.356100000000000014e-02 2.799999999999999958e-05 2.671000000000000197e-03 -1.313199999999999958e-02 2.059999999999999928e-04 1.010000000000000047e-03 -1.323299999999999997e-02 -4.800000000000000122e-05 -2.167000000000000089e-03 1.409000000000000009e-02 9.899999999999999404e-05 -1.067000000000000023e-03 1.359699999999999971e-02 1.150000000000000035e-04 2.742000000000000080e-03 -1.309800000000000027e-02 -1.320000000000000101e-04 1.003999999999999901e-03 -1.314599999999999970e-02 6.000000000000000152e-06 -2.069000000000000093e-03 1.409200000000000036e-02 -1.039999999999999936e-04 -1.090999999999999956e-03 1.353000000000000036e-02 -2.770000000000000110e-04 -8.600000000000000331e-05 -6.620000000000000450e-04 -4.200000000000000174e-04 -1.577800000000000036e-02 1.322100000000000011e-02 -3.229999999999999907e-04 1.454000000000000084e-02 -1.299200000000000008e-02 -4.049999999999999781e-04 1.507799999999999939e-02 -1.244100000000000067e-02 -2.849999999999999886e-04 1.730000000000000038e-04 -8.000000000000000654e-05 -2.539999999999999940e-04 -1.463599999999999970e-02 1.336799999999999967e-02 1.479999999999999925e-04 -1.640000000000000019e-04 -7.200000000000000453e-04 1.299999999999999886e-04 -1.574499999999999858e-02 1.301199999999999926e-02 2.840000000000000185e-04 1.447599999999999928e-02 -1.310799999999999986e-02 5.700000000000000314e-05 1.521800000000000062e-02 -1.235799999999999919e-02 3.440000000000000132e-04 2.400000000000000061e-04 5.500000000000000196e-05 5.469999999999999602e-04 -1.458800000000000027e-02 1.346100000000000074e-02 3.789999999999999966e-04 -1.469999999999999953e-04 -6.139999999999999625e-04 3.820000000000000153e-04 -1.575199999999999864e-02 1.337400000000000047e-02 -1.190000000000000058e-04 1.444999999999999930e-02 -1.319599999999999940e-02 2.169999999999999891e-04 1.516900000000000019e-02 -1.238000000000000038e-02 6.600000000000000506e-05 1.749999999999999982e-04 -2.300000000000000002e-05 -1.000000000000000082e-05 -1.457899999999999995e-02 1.380699999999999983e-02 -3.280000000000000038e-04 -4.699999999999999859e-04 -8.180000000000000422e-04 -4.029999999999999837e-04 -1.466899999999999975e-02 1.317499999999999921e-02 -2.069999999999999900e-04 1.553799999999999973e-02 -1.285999999999999990e-02 -5.839999999999999922e-04 1.557300000000000004e-02 -1.293500000000000032e-02 -3.300000000000000253e-05 2.030000000000000012e-04 -5.839999999999999922e-04 -1.840000000000000001e-04 -1.560699999999999935e-02 1.307299999999999955e-02 3.159999999999999832e-04 -2.779999999999999811e-04 -7.190000000000000210e-04 4.620000000000000083e-04 -1.476799999999999988e-02 1.299299999999999934e-02 4.099999999999999912e-04 1.561500000000000041e-02 -1.278100000000000069e-02 1.019999999999999992e-04 1.540099999999999976e-02 -1.284399999999999951e-02 5.710000000000000015e-04 1.179999999999999951e-04 -5.509999999999999490e-04 5.580000000000000107e-04 -1.531500000000000049e-02 1.317100000000000042e-02 2.599999999999999772e-04 -1.510000000000000112e-04 -5.710000000000000015e-04 2.610000000000000015e-04 -1.478499999999999953e-02 1.322599999999999991e-02 -3.249999999999999851e-04 1.568699999999999956e-02 -1.293599999999999958e-02 2.700000000000000035e-04 1.543300000000000054e-02 -1.286699999999999997e-02 -2.649999999999999903e-04 1.990000000000000124e-04 -6.170000000000000354e-04 -1.450000000000000009e-04 -1.540900000000000082e-02 1.336900000000000067e-02 -3.370000000000000057e-04 6.139999999999999625e-04 -1.087999999999999991e-03 -2.400000000000000061e-04 -1.533200000000000014e-02 1.310500000000000033e-02 -3.809999999999999910e-04 1.528499999999999998e-02 -1.320200000000000019e-02 -4.279999999999999950e-04 1.463700000000000070e-02 -1.345099999999999942e-02 -1.640000000000000019e-04 -1.003999999999999901e-03 -1.315999999999999896e-03 -1.759999999999999954e-04 -1.564799999999999872e-02 1.214200000000000002e-02 1.789999999999999870e-04 5.479999999999999845e-04 -1.048000000000000103e-03 2.059999999999999928e-04 -1.545200000000000046e-02 1.294900000000000044e-02 4.350000000000000026e-04 1.523700000000000054e-02 -1.326600000000000001e-02 7.200000000000000182e-05 1.467800000000000007e-02 -1.339899999999999945e-02 3.739999999999999835e-04 -1.049000000000000019e-03 -1.255999999999999955e-03 4.989999999999999861e-04 -1.574499999999999858e-02 1.218200000000000012e-02 3.099999999999999999e-04 4.870000000000000197e-04 -1.101999999999999898e-03 3.319999999999999926e-04 -1.525499999999999946e-02 1.314599999999999970e-02 -2.090000000000000115e-04 1.518399999999999958e-02 -1.361500000000000037e-02 2.719999999999999979e-04 1.457199999999999988e-02 -1.363100000000000075e-02 1.299999999999999920e-05 -1.066000000000000107e-03 -1.286999999999999950e-03 -8.899999999999999491e-05 -1.570399999999999921e-02 1.229799999999999990e-02 -4.150000000000000043e-04 2.269999999999999882e-04 2.570000000000000127e-04 -5.649999999999999641e-04 -1.597900000000000015e-02 1.329200000000000000e-02 -3.879999999999999985e-04 1.546100000000000078e-02 -1.307999999999999961e-02 -5.119999999999999768e-04 1.449300000000000067e-02 -1.318199999999999927e-02 -2.649999999999999903e-04 -2.559999999999999884e-04 -5.300000000000000078e-05 -3.950000000000000061e-04 -1.482100000000000084e-02 1.330500000000000085e-02 9.899999999999999404e-05 2.149999999999999947e-04 2.310000000000000042e-04 2.750000000000000166e-04 -1.590899999999999953e-02 1.312100000000000072e-02 5.119999999999999768e-04 1.537999999999999957e-02 -1.305599999999999990e-02 1.689999999999999879e-04 1.456600000000000082e-02 -1.294599999999999917e-02 5.460000000000000443e-04 -2.889999999999999774e-04 -7.499999999999999343e-05 4.939999999999999730e-04 -1.466199999999999969e-02 1.338800000000000059e-02 3.179999999999999776e-04 2.900000000000000017e-04 1.890000000000000133e-04 5.969999999999999829e-04 -1.590199999999999947e-02 1.342899999999999996e-02 -1.090000000000000067e-04 1.528299999999999971e-02 -1.325699999999999969e-02 2.329999999999999986e-04 1.454699999999999917e-02 -1.324099999999999930e-02 -9.699999999999999963e-05 -4.440000000000000045e-04 2.000000000000000164e-05 8.200000000000000095e-05 -1.456799999999999935e-02 1.356899999999999946e-02 -2.739999999999999923e-04 -3.020000000000000223e-04 -1.469999999999999953e-04 -3.190000000000000019e-04 -1.512800000000000082e-02 1.346900000000000007e-02 -2.259999999999999910e-04 1.492199999999999950e-02 -1.392499999999999988e-02 -4.310000000000000137e-04 1.528900000000000051e-02 -1.339100000000000013e-02 -6.700000000000000226e-05 -1.830000000000000029e-04 2.779999999999999811e-04 -1.499999999999999869e-04 -1.550299999999999942e-02 1.305699999999999916e-02 2.049999999999999956e-04 -2.320000000000000014e-04 4.899999999999999842e-05 2.269999999999999882e-04 -1.515400000000000080e-02 1.326600000000000001e-02 4.889999999999999599e-04 1.492300000000000050e-02 -1.424300000000000045e-02 1.110000000000000011e-04 1.525899999999999999e-02 -1.337499999999999974e-02 3.789999999999999966e-04 -1.259999999999999998e-04 3.269999999999999795e-04 5.289999999999999564e-04 -1.555800000000000065e-02 1.305399999999999963e-02 2.640000000000000202e-04 -2.369999999999999874e-04 -1.840000000000000001e-04 3.280000000000000038e-04 -1.498700000000000032e-02 1.358299999999999959e-02 -3.119999999999999944e-04 1.485000000000000035e-02 -1.425500000000000031e-02 2.439999999999999949e-04 1.510200000000000084e-02 -1.364199999999999961e-02 -2.039999999999999984e-04 -1.869999999999999917e-04 2.139999999999999975e-04 -8.899999999999999491e-05 -1.567299999999999943e-02 1.322899999999999944e-02 -3.049999999999999868e-04 5.820000000000000520e-04 -1.459999999999999981e-04 -2.709999999999999735e-04 -1.477099999999999941e-02 1.400400000000000082e-02 -3.770000000000000022e-04 1.514000000000000068e-02 -1.359600000000000045e-02 -5.749999999999999903e-04 1.544300000000000013e-02 -1.384999999999999946e-02 -2.359999999999999902e-04 2.310000000000000042e-04 2.610000000000000015e-04 -3.800000000000000209e-05 -1.535399999999999959e-02 1.342600000000000043e-02 1.920000000000000049e-04 5.649999999999999641e-04 -1.210000000000000002e-04 2.030000000000000012e-04 -1.504499999999999935e-02 1.367100000000000086e-02 3.789999999999999966e-04 1.502700000000000043e-02 -1.362999999999999975e-02 1.610000000000000103e-04 1.541999999999999968e-02 -1.366700000000000033e-02 4.479999999999999933e-04 1.820000000000000057e-04 2.429999999999999977e-04 5.460000000000000443e-04 -1.530100000000000036e-02 1.349099999999999952e-02 2.689999999999999791e-04 4.929999999999999487e-04 -7.700000000000000139e-05 3.879999999999999985e-04 -1.498500000000000006e-02 1.395700000000000066e-02 -1.469999999999999953e-04 1.511200000000000043e-02 -1.378000000000000058e-02 3.860000000000000041e-04 1.556800000000000024e-02 -1.390100000000000016e-02 -1.999999999999999909e-06 2.919999999999999961e-04 1.589999999999999888e-04 -1.879999999999999890e-04 -1.520900000000000030e-02 1.365500000000000047e-02 -3.060000000000000111e-04 -1.245999999999999929e-03 -8.069999999999999916e-04 -3.139999999999999888e-04 -1.635800000000000101e-02 1.153900000000000065e-02 -4.169999999999999987e-04 1.460200000000000040e-02 -1.338699999999999959e-02 -5.869999999999999567e-04 1.447500000000000002e-02 -1.359800000000000071e-02 -2.410000000000000033e-04 -5.850000000000000165e-04 -8.200000000000000095e-05 -1.959999999999999937e-04 -1.609599999999999920e-02 1.084300000000000021e-02 1.110000000000000011e-04 -1.142999999999999919e-03 -6.400000000000000524e-04 1.110000000000000011e-04 -1.635199999999999848e-02 1.159800000000000067e-02 5.479999999999999845e-04 1.478200000000000000e-02 -1.351800000000000050e-02 1.520000000000000084e-04 1.458899999999999954e-02 -1.336399999999999914e-02 4.510000000000000120e-04 -5.159999999999999656e-04 -2.579999999999999828e-04 3.869999999999999742e-04 -1.617899999999999894e-02 1.103499999999999967e-02 4.150000000000000043e-04 -1.144999999999999967e-03 -7.770000000000000214e-04 4.380000000000000213e-04 -1.641199999999999951e-02 1.167100000000000082e-02 -1.299999999999999886e-04 1.469299999999999946e-02 -1.378000000000000058e-02 2.539999999999999940e-04 1.437399999999999962e-02 -1.361599999999999963e-02 -5.000000000000000409e-06 -6.179999999999999513e-04 -3.319999999999999926e-04 -1.200000000000000030e-05 -1.622099999999999931e-02 1.101500000000000049e-02 -2.900000000000000017e-04 1.060000000000000016e-04 -5.779999999999999548e-04 -3.519999999999999908e-04 -1.468900000000000067e-02 1.171999999999999952e-02 -3.029999999999999924e-04 1.535199999999999933e-02 -1.360800000000000030e-02 -5.000000000000000104e-04 1.537400000000000051e-02 -1.273799999999999932e-02 -1.399999999999999979e-05 2.489999999999999809e-04 -2.290000000000000098e-04 -1.320000000000000101e-04 -1.499699999999999991e-02 1.162499999999999992e-02 1.789999999999999870e-04 2.629999999999999959e-04 -3.609999999999999928e-04 2.700000000000000035e-04 -1.484399999999999956e-02 1.155800000000000056e-02 3.959999999999999762e-04 1.540099999999999976e-02 -1.368600000000000025e-02 1.800000000000000113e-04 1.536700000000000045e-02 -1.267800000000000003e-02 4.099999999999999912e-04 2.120000000000000031e-04 -1.649999999999999991e-04 4.000000000000000192e-04 -1.479500000000000086e-02 1.154499999999999971e-02 2.159999999999999919e-04 1.869999999999999917e-04 -5.730000000000000501e-04 1.930000000000000021e-04 -1.469099999999999920e-02 1.180699999999999979e-02 -2.959999999999999849e-04 1.528200000000000044e-02 -1.373699999999999921e-02 2.110000000000000059e-04 1.535500000000000059e-02 -1.287600000000000029e-02 -1.990000000000000124e-04 3.040000000000000167e-04 -2.770000000000000110e-04 -4.399999999999999886e-05 -1.496699999999999940e-02 1.167100000000000082e-02 -2.640000000000000202e-04 1.149000000000000065e-03 3.330000000000000169e-04 -4.040000000000000080e-04 -1.527000000000000059e-02 1.147399999999999982e-02 -2.680000000000000090e-04 1.537400000000000051e-02 -1.258699999999999923e-02 -5.429999999999999714e-04 1.529100000000000077e-02 -1.316900000000000015e-02 -3.119999999999999944e-04 -3.490000000000000263e-04 5.599999999999999916e-05 -1.450000000000000009e-04 -1.511299999999999970e-02 1.158299999999999955e-02 1.990000000000000124e-04 1.123999999999999999e-03 2.660000000000000146e-04 1.190000000000000058e-04 -1.524400000000000061e-02 1.129699999999999975e-02 3.400000000000000244e-04 1.516400000000000040e-02 -1.268900000000000063e-02 -9.200000000000000007e-05 1.520700000000000003e-02 -1.294099999999999938e-02 3.620000000000000171e-04 -4.409999999999999858e-04 1.060000000000000016e-04 5.540000000000000219e-04 -1.515500000000000007e-02 1.155199999999999977e-02 2.820000000000000241e-04 1.126000000000000048e-03 3.780000000000000265e-04 4.840000000000000010e-04 -1.528999999999999977e-02 1.146999999999999929e-02 -1.379999999999999933e-04 1.521699999999999962e-02 -1.272299999999999993e-02 3.959999999999999762e-04 1.527500000000000038e-02 -1.315900000000000056e-02 7.200000000000000182e-05 -3.699999999999999947e-04 9.100000000000000287e-05 -9.399999999999999448e-05 -1.503299999999999949e-02 1.183599999999999930e-02