-1.412880966440000066e+03
-1.412880967909999981e+03
-1.412880970630000093e+03
-1.412880974960000003e+03
-1.412880980760000057e+03
