-4.702363629100000253e+02
-4.702363635599999725e+02
-4.702363648499999726e+02
-4.702363668099999927e+02
-4.702363695000000234e+02
-4.702363728999999921e+02
