-6.150736234340026318e-06 -3.886884675312201622e-04 -1.190929948504262370e-01 1.432782740758237368e-02 -9.390301861844252418e-03 -2.049928344411032846e-02 -1.431817302285645806e-02 -9.398279276179814096e-03 -2.048944982019953315e-02 6.218480685628091165e-04 2.060524670213054698e-04 3.735022404278070390e-03 -6.201512271827670569e-04 2.200531984785986301e-04 3.717971630508098025e-03 -7.200391181586348188e-06 -1.667930679109342739e-03 4.889023358918698735e-03 1.932847776076900784e-03 1.653051936590308564e-03 3.770055274057611261e-03 1.680214217504236163e-05 1.707472536185452097e-02 -1.937024141577126102e-02 -1.953151728132102981e-03 1.658054809179322023e-03 3.757896961952509989e-03 -1.612999506233134809e-05 -1.219547602925538269e-04 3.190001075188106210e-03 -3.612640526829049024e-05 4.204405023823032991e-05 3.104997935696891462e-03 4.087371369607178457e-05 3.804394741454347956e-05 3.102001127916270088e-03 -1.301165296155412817e-04 1.704067863811601215e-05 2.861994462606865224e-03 1.098835093390957259e-04 1.504047654144484790e-05 2.861004263967589431e-03 1.188395497391527341e-05 -3.995961685293159644e-05 2.849001053112326046e-03 -1.211957985854392598e-05 2.204164957871779527e-05 2.936999196708759557e-03 -4.126650428426170209e-06 -1.095590392332683565e-05 3.109999990180942458e-03 9.880475731945538481e-06 4.104161817309158201e-05 2.935999823190908135e-03 2.985823116668250064e-05 2.704934359084814371e-05 3.482000835589058301e-03 -3.171159945295649592e-04 1.800406832640112783e-04 2.851984536841557435e-03 2.778829579887040100e-04 1.950405860024657391e-04 2.878008553057349959e-03 6.871592297742041412e-06 -1.895530289027744195e-05 3.153000551492439810e-03 -1.112915476677172973e-05 -3.695503359421548425e-05 3.171000073700129540e-03 -1.012135845626448800e-05 -3.769578415464176508e-04 2.973004935044619868e-03 3.148797026415357803e-04 1.980416912549346235e-04 2.958010017121183444e-03 -1.611326281487937643e-05 -3.349606440561567460e-04 2.775004095437508343e-03 -3.041219906902841732e-04 1.670427572222901648e-04 2.998985250386895698e-03 -1.788973431134950186e-04 -1.040035885516862012e-03 -2.540992541796234343e-03 9.250285238085590350e-06 1.749128987384763220e-04 -6.143002108910423920e-03 1.851016213249863222e-04 -1.062035816080360859e-03 -2.515977407518871483e-03 5.105160235357949891e-06 4.919635165679504081e-04 -2.573006769463513817e-03 4.281306944267611390e-04 9.629544234355597509e-04 -3.190996221695592203e-03 -4.248694372147359061e-04 9.499551338659773794e-04 -3.188030772273458407e-03 -1.132878496792929200e-03 -2.190414760958229274e-04 -2.988043029016475977e-03 1.168120686881820658e-03 -2.190429942140704404e-04 -2.967949330356648395e-03 -2.285804794119890673e-05 -5.304941995817695748e-05 -3.487000181916602524e-03 4.348788831739641703e-03 -4.243931041354904142e-03 5.104237260664990644e-03 8.287100621283495424e-06 -1.841000164139120886e-04 -7.053997058967326032e-03 -4.350211287125794156e-03 -4.248924187537453726e-03 5.106883100867156203e-03 4.908123641818018851e-06 4.976033341758075330e-03 2.351929652866827439e-03 2.688972637224007912e-03 1.512007833005459640e-03 7.010880609386417129e-04 -2.682026919794926103e-03 1.500011882523273740e-03 6.898695193906814694e-04 -1.334893052171486722e-03 1.004964083686040854e-03 -2.607068608565062205e-03 1.350106616700560199e-03 1.000962094764128174e-03 -2.598959216376196986e-03 -1.097880072923335188e-05 -1.320007732330239414e-03 -5.459817327740249058e-04 1.811832218398677679e-05 -6.804122893819650631e-05 -2.906998300234421573e-03 -1.087908887183529108e-05 -3.804209943544021417e-05 -2.969999906413443077e-03 -8.797975894527136654e-07 -5.904186624076355360e-05 -2.952999201487702379e-03 1.199965047600034219e-07 4.195823221062587073e-05 -2.946000592727468503e-03 1.117973757697996780e-06 6.958926143130914927e-06 -2.897000055830446438e-03 1.011872788183775203e-05 3.395866389312706004e-05 -2.915000072125667474e-03 -2.688218048313048661e-05 1.795900477709580810e-05 -2.893001351973394520e-03 9.119046597225861128e-06 2.495855125466761928e-05 -2.922999985239210438e-03 2.411669652966650509e-05 3.995936182034417469e-05 -2.864999587146812524e-03 4.259929824163882946e-04 1.390021475438133164e-04 1.750153762107740311e-04 -4.680115298281892450e-04 9.600440710420159781e-05 2.849795813114489929e-04 2.098973883967871642e-05 -5.709965995366733920e-04 2.410089504167800198e-04 3.779933598388444558e-04 -2.997984991600303058e-06 1.630154348634879624e-04 -2.900918427987682252e-05 -3.919968864942041946e-04 2.180043765759443321e-04 -3.340082441134450660e-04 2.800313961035209373e-05 2.029860020696414935e-04 1.698793112065630806e-05 3.440042825263812725e-04 3.029958148221679310e-04 2.779828313213556358e-04 1.760058078723552146e-04 4.250088247151608488e-04 -2.730131940093856609e-04 2.070048640539617066e-04 3.279859481056991862e-04 1.427287295755150578e-02 6.386686624726812742e-03 -2.131450936557374026e-02 -1.423212570241881407e-02 6.403708490341071709e-03 -2.134767035442705282e-02 -4.932628069450538762e-05 -2.266886978553398976e-03 7.969030138260106699e-03 5.056703426561606415e-03 -3.109007877633500707e-04 7.277210327863847285e-03 1.685913347778690067e-05 -1.360930284886495249e-02 -2.135980638342713581e-02 -5.085297009846545362e-03 -3.588927048335439928e-04 7.286798017515173052e-03 2.004260034810048199e-05 5.100986543275832369e-03 -9.480715054731645016e-04 5.850116594546098158e-04 -6.580046971472307965e-04 -2.989668490557854334e-04 -6.069897491396572618e-04 -6.900032817675446403e-04 -2.650149346534918572e-04 -1.059911587883601957e-04 5.997006415393841107e-06 -2.170044012750762890e-04 8.001296639938833505e-05 2.199542881916417020e-05 -3.179970539470946601e-04 1.701112304381120378e-05 7.996116150124697557e-06 -2.729994209138584074e-04 -1.099129594255081198e-05 -6.500303960649261989e-05 -2.149995261748732637e-04 1.300881295425829174e-05 7.399694158758683183e-05 -2.150005195835683850e-04 -1.198711890883563734e-05 -3.500448496164786501e-05 -3.169999921338093442e-04 -3.798927317392440412e-05 -3.000371318109762038e-05 -2.640011218140244525e-04 7.500856150065270676e-05 1.299696393695147791e-05 -2.099971300518756699e-04 -5.699084638302998848e-05 -1.100314537206690925e-05 -2.250021649239558651e-04 -2.724377519299199524e-02 2.126764520794448624e-02 4.400258912317217552e-02 2.030539206514353051e-05 -2.366916322497098765e-05 1.644020013152569792e-01 2.721522629510232660e-02 2.119760201382986722e-02 4.396580773248283391e-02 3.523901330592108178e-05 -3.390039615071534229e-02 4.259348210743640895e-02 -2.380802091556117727e-03 -3.812719911028546876e-03 1.962395712594400266e-02 2.345193266241262734e-03 -3.859722009372765477e-03 1.973715023893621995e-02 4.794195502445679040e-03 -2.757237288025247480e-04 1.975119915118332334e-02 -4.749801463759188713e-03 -2.597173050456823653e-04 1.967681028460484260e-02 -5.274439976081706172e-05 -2.887408600448025230e-04 1.827500196290097328e-02 -6.388173850795100740e-05 -6.469297303948498795e-05 2.165199833601334084e-02 5.014132584798706099e-05 -4.370108693533938710e-05 2.108600268098348787e-02 2.912141572535935770e-05 -4.069413755078993169e-05 2.157500178285775075e-02 -4.886243610861575320e-05 -1.676997334046366310e-04 2.117600040757823196e-02 1.541223279352078239e-04 -1.969454733892445647e-05 2.155300657525155775e-02 -1.048760524192589327e-04 -3.169491165352485910e-05 2.151299619872146587e-02 -3.386809851865089411e-05 1.413023105995979585e-04 2.132099663732729689e-02 3.413374015631962302e-05 2.013016335268146700e-04 2.127699855572026677e-02 2.214546455895780575e-05 4.129751720044767924e-05 2.098600033578272225e-02 2.541286004537578452e-04 3.430320515332556137e-05 2.140000988187967107e-02 -7.687455750002271870e-05 5.304556018219673246e-06 2.147699681436151392e-02 -1.818729786780757781e-04 4.530409947255978570e-05 2.143899197159693237e-02 1.515379823264317246e-05 2.329461623518591721e-05 2.078100030612707594e-02 1.091228909371856431e-04 -1.846947531099847248e-04 2.153600708216003162e-02 -1.278774956767546420e-04 -1.066944115920100594e-04 2.154699632544254326e-02 7.911950738934849891e-05 1.743065463452913222e-04 2.162600077063375065e-02 -1.848828260417276236e-04 1.063075470196720151e-04 2.168199098436491418e-02 8.314104936906380498e-05 -8.470102770330708371e-05 2.109200460605429803e-02 -1.531736985415752632e-05 1.377623784859435818e-04 -1.676100259248397908e-02 -2.225910074444714063e-03 1.389622643522094199e-03 -2.673911036757012361e-02 2.216089329030717682e-03 1.308619349772675031e-03 -2.672592833716270697e-02 8.181761277273625894e-05 4.927154023524667886e-04 -2.006900367259233792e-02 -2.518530806896993840e-05 5.067165069329101915e-04 -1.999700822827902777e-02 -5.312418928995622222e-05 -1.316305248053095678e-03 -2.153298352097219454e-02 1.587880325460200954e-03 3.416923468372330816e-04 -2.161194020471390170e-02 6.907481088751819354e-05 -3.190375140676279721e-03 -2.645595197932320772e-02 -1.626122409598251177e-03 2.776957991278241927e-04 -2.154607017421388340e-02 -6.031873524483672138e-05 7.337630516614782787e-04 -1.671601287491113891e-02 1.281396951054906813e-05 1.351716959138912809e-03 -1.996301866112842188e-02 5.180976112735852533e-05 1.333718388916799820e-03 -1.986001681791123297e-02 -5.261389977877956340e-04 -9.352996177722435215e-04 -2.116200818400753442e-02 5.058628072025281698e-04 -8.653010354765338892e-04 -2.120496715249265557e-02 8.771508432084390623e-06 -7.132688171921772917e-04 -1.895998954786265456e-02 -4.511168814826202900e-04 -4.093072333149107159e-04 -2.169501258695180970e-02 2.475928382229671080e-05 -1.522644204823131030e-04 -1.864899685034344598e-02 4.228808029981725568e-04 -3.493070953474686712e-04 -2.163697784764765861e-02 7.787089578286755852e-05 5.069673337251678479e-05 -2.138599756768000751e-02 -8.113325682736549703e-05 5.169830400393180865e-05 -2.128400405656791922e-02 2.870863768522222682e-06 1.136968204464680919e-04 -2.138400151494480178e-02 -7.127382167713292314e-06 -3.830382388683373153e-05 -2.142999976709050389e-02 -3.412765548755989492e-05 -1.273037318479884855e-04 -2.142499960473718407e-02 1.587166169451570264e-05 4.069651254117466114e-05 -2.140499995057748225e-02 -9.912801795337892660e-05 -1.830352500847779715e-05 -2.141400379697894901e-02 -6.512891775792621857e-05 -2.330323971834505180e-05 -2.139200234160164651e-02 1.498753765327363299e-04 -5.130491090600435483e-05 -2.149799318954273911e-02
4.846324020320882311e-06 -3.986874553419037220e-04 -1.190209942607861754e-01 1.431782796984669426e-02 -9.400302052502416614e-03 -2.051328370952818989e-02 -1.432517196175809096e-02 -9.395279639321824083e-03 -2.051545014775460821e-02 6.128489323272220827e-04 2.170521763334593306e-04 3.714021881854533483e-03 -6.211513148922056431e-04 2.120532276179919976e-04 3.719971703207495574e-03 7.994498462858404787e-07 -1.662930628662634500e-03 4.893023613792971994e-03 1.932847618678555125e-03 1.660051993300784351e-03 3.774055174809548465e-03 -7.197126397078807971e-06 1.707272512544631346e-02 -1.938824236469943035e-02 -1.933152501061077442e-03 1.659055062897410145e-03 3.776897762174106360e-03 8.715820912817927090e-07 -8.395531236354311741e-05 3.152001228722888047e-03 -6.312533553402758081e-05 5.604370275503573552e-05 3.078996637769392062e-03 5.187466358701792749e-05 5.504361271057861825e-05 3.079001334845034125e-03 -9.311528062093801848e-05 4.021015731577793376e-08 2.830996210329153086e-03 9.688468085135640284e-05 3.040075565539079827e-06 2.832003904756645075e-03 -1.311512253035222870e-05 -5.795992336550644992e-05 2.826000290312171391e-03 2.880718495644433754e-06 3.904153858749411665e-05 2.929999566506054712e-03 8.739838622502951937e-07 -3.295613468081557996e-05 3.094000505710868109e-03 -9.119127230351078595e-06 2.804149127337546339e-05 2.925999233814958154e-03 -1.914271555845249137e-05 1.404970804826368888e-05 3.504999024556897710e-03 -2.831162286963492705e-04 1.930407417076036012e-04 2.857985737033992384e-03 2.958842508541997731e-04 1.820401182203938814e-04 2.846009470373342311e-03 -6.129706056915198660e-06 -1.295483902248065766e-05 3.184999937025047387e-03 -1.129414746594222475e-06 -4.954942182835473176e-06 3.178000027213702481e-03 8.782938528156990368e-07 -3.529577225616365973e-04 2.982005042699292265e-03 2.838790205744409789e-04 1.590419423764729016e-04 2.974009307692700426e-03 5.887830360966233986e-06 -3.429610440817405076e-04 2.748005104743439595e-03 -3.021200290394610629e-04 1.760420751212131299e-04 2.950985204273347956e-03 -1.948974707477590528e-04 -1.047035830454831834e-03 -2.537993094088296722e-03 -1.748849428695437379e-06 1.879126096164208601e-04 -6.164002741131189428e-03 2.021031890757176200e-04 -1.036036368150140526e-03 -2.553977083850927747e-03 2.105489922433676711e-06 4.969634054940719192e-04 -2.581006962507447280e-03 4.251312629538625478e-04 9.609542272956148132e-04 -3.204996315489604380e-03 -4.178686071322717621e-04 9.699548448270808821e-04 -3.208030770764178346e-03 -1.167878639299330936e-03 -2.450414061549502625e-04 -2.985044085627203310e-03 1.157121886576086955e-03 -2.470434109321508961e-04 -2.997949381280745444e-03 1.814292697423549992e-05 -5.604979232780562463e-05 -3.510998469806105460e-03 4.357789052550012886e-03 -4.273931133465617808e-03 5.098238052491132696e-03 -7.126119746513629238e-07 -1.811001086118166814e-04 -7.060997467981769068e-03 -4.350211101543785194e-03 -4.271924258424111831e-03 5.101883426960363531e-03 2.908416525091768913e-06 4.986033244078491751e-03 2.344929429653997647e-03 2.715972642686628399e-03 1.519007811863857561e-03 7.010890611572776019e-04 -2.711027756102750257e-03 1.524012202961445113e-03 7.108679982001543792e-04 -1.366893046659931228e-03 1.011964108741212178e-03 -2.607070010876641995e-03 1.366107074802985072e-03 1.013961926279130076e-03 -2.609958749143278557e-03 8.021564175421175012e-06 -1.322007874807123052e-03 -5.549809307139603846e-04 1.411739579443944612e-05 -5.504089971822907941e-05 -2.883998647450131732e-03 8.118135826697436320e-06 -4.604115022147598711e-05 -2.901999019358377039e-03 -1.388350317511154779e-05 -5.904056588243547136e-05 -2.861999730943360579e-03 3.118491398338356003e-06 4.395875443986422052e-05 -2.909000498954837644e-03 -2.388364251799166327e-05 2.295951282823635998e-05 -2.857001300733124239e-03 2.911601991772773569e-05 7.959584753315170853e-06 -2.848998929868999663e-03 5.116474135461359298e-06 1.595944758866742414e-05 -2.860000020581308488e-03 1.111602385052437255e-05 1.295959884674192021e-05 -2.848999733733136811e-03 -9.885009015973447954e-06 4.595998390901385869e-05 -2.823001056761374576e-03 4.339947036300810588e-04 1.010015316384743096e-04 1.320162407725674562e-04 -4.420048109111517770e-04 9.600204741006660206e-05 1.199806402069617981e-04 -8.109206971170502242e-09 -5.789973345161018164e-04 1.880082087502829894e-04 3.449928500846316678e-04 2.200222515609227768e-05 1.760137366192296264e-04 -2.006521776200142431e-06 -3.719978291938152233e-04 1.530051925440790181e-04 -3.370065369699702705e-04 2.400254649233855297e-05 1.609859366571851538e-04 9.891026354051965396e-07 3.320038838994639695e-04 2.739953334486700106e-04 2.909866684724163864e-04 1.880044649794312852e-04 3.310091840404460789e-04 -2.830134070081735654e-04 1.950049427741098432e-04 3.329857110257016385e-04 1.411886912597742558e-02 6.329688063848934801e-03 -2.122151482853874838e-02 -1.412513027658737243e-02 6.334709980302725280e-03 -2.123666501913348825e-02 6.779926015053419311e-07 -2.269888506371417307e-03 7.864032216933559624e-03 4.999706507288400117e-03 -3.289018206432020889e-04 7.201208262045726005e-03 -2.147241606183446059e-06 -1.348230057973136622e-02 -2.120080895784707403e-02 -5.000293324668532782e-03 -3.328940473924210707e-04 7.196801110249332299e-03 1.044020866837240153e-06 5.042986047757973961e-03 -9.840714568255892834e-04 6.130117894296415598e-04 -6.480047616055174603e-04 -3.019658506468000827e-04 -6.129883708697270389e-04 -6.460037449412504244e-04 -2.980158027695143275e-04 -8.899299202383398723e-05 4.997631105351347450e-06 -1.720036948846757874e-04 8.100769852230120473e-05 2.997256973685286677e-06 -1.889967439686558639e-04 5.008356387363692719e-06 1.099708963586083356e-05 -2.049999521605748931e-04 -1.499028729613345591e-05 -2.500337674562918454e-05 -2.390002561465060600e-04 -1.993917680301930669e-06 7.099790324512094851e-05 -1.480010879253278340e-04 1.401032976100200937e-05 -1.700361212025464696e-05 -2.539991886499874283e-04 -5.990629525361375735e-06 -4.600327036811464225e-05 -2.309995919332499901e-04 3.500643308011930257e-05 -1.002267496432034829e-06 -1.579985604455709069e-04 -3.799316435237529675e-05 -7.002352115061415091e-06 -1.680014479918256088e-04 -2.713076787986450078e-02 2.109064252494721389e-02 4.381959623426260469e-02 -9.661876973913669018e-06 -3.468053868144941563e-05 1.635980002503342468e-01 2.713223241186650883e-02 2.110459992380303226e-02 4.381380567132549253e-02 -1.275412823958512617e-05 -3.372239845248570927e-02 4.242847762934703892e-02 -2.357800468201626514e-03 -3.767720481976014231e-03 1.958495742456048058e-02 2.368198800388522998e-03 -3.760723927216236186e-03 1.960314977204177800e-02 4.713199602780527263e-03 -2.917250973355548210e-04 1.965019607973248969e-02 -4.730800464559712162e-03 -2.837176743650739901e-04 1.965181139859057541e-02 1.425744359144246747e-05 -2.747415505077477360e-04 1.823000449275113954e-02 -5.787013774998376242e-05 -1.869700423598240840e-05 2.136799792842533630e-02 -5.848852547388917660e-06 -3.370445993724530712e-05 2.084500025906222201e-02 7.013002032577214694e-05 -2.469716117006695119e-05 2.136400322576457664e-02 4.147500515962307312e-06 -1.667032342856023181e-04 2.093200255183240086e-02 1.101338457008367501e-04 -2.769852520237489144e-05 2.127000489721929399e-02 -1.098657844948411783e-04 -2.369848054378210662e-05 2.126099588192935722e-02 -1.885747117542240815e-05 1.402985984501666102e-04 2.105999726256044952e-02 2.314239879148788259e-05 1.302986080987222472e-04 2.106299911461104180e-02 1.578311753922768978e-07 2.529322437818567519e-05 2.068199966705080994e-02 2.301394235977981414e-04 2.329945265277561203e-05 2.113400906078191643e-02 1.113817707988482577e-05 -8.699950533979376499e-06 2.116400059657606164e-02 -2.408603410893961968e-04 1.129973637840261258e-05 2.112799005139977954e-02 -4.836423264151681241e-06 3.029122922351618738e-05 2.054099939268881278e-02 1.361330562618797639e-04 -1.516983045252531554e-04 2.128700771398828878e-02 -1.338668354559849468e-04 -1.696981356478625448e-04 2.128399697456101816e-02 1.401296812801700411e-04 1.663029541344915026e-04 2.137600336826017688e-02 -1.458701931858075586e-04 1.703031355376027737e-04 2.137299166538849174e-02 -6.849042854991611103e-06 -6.870440243953929225e-05 2.084900071455937642e-02 -3.308390617604510906e-07 1.497670595900567163e-04 -1.643000215211206858e-02 -2.237926136467916285e-03 1.366628238971739689e-03 -2.634511053049803930e-02 2.227073657791759417e-03 1.368624813782678756e-03 -2.633992874025797848e-02 6.080171053104637622e-05 5.177209623108527991e-04 -1.967800488253777444e-02 -7.219850863431320461e-05 4.977211373403346486e-04 -1.967301001486034678e-02 8.861065038077241122e-06 -1.270300150063778276e-03 -2.116998164879399166e-02 1.581864030835603268e-03 2.816980084816086841e-04 -2.121293959874410995e-02 -4.941494625727466115e-06 -3.212369411614200698e-03 -2.605595468112723370e-02 -1.565136501410208884e-03 2.747006568825567673e-04 -2.120006764803031643e-02 6.712552136619404619e-07 7.437664916353640184e-04 -1.647001053294553166e-02 -1.919889433048629313e-05 1.356721464377620527e-03 -1.964702003537822927e-02 2.180187933146852028e-05 1.356721162896666394e-03 -1.966601836580566739e-02 -5.181489994496039832e-04 -9.152961363005696939e-04 -2.091600814202467656e-02 5.188504319492686246e-04 -9.122967497787508534e-04 -2.090196595704837262e-02 -4.238380452668278261e-06 -7.052653618097604873e-04 -1.871699019088171947e-02 -4.451268862770637897e-04 -3.933037502768412636e-04 -2.144901256969959993e-02 -6.248903391554636880e-06 -1.552615464722618271e-04 -1.844799807034338754e-02 4.518729555806187291e-04 -3.863043959139173390e-04 -2.144497614234421035e-02 -3.131676615033141856e-06 4.169768999722059171e-05 -2.132300073852764349e-02 -2.213573692967337522e-05 5.669912265217171075e-05 -2.122300172498322451e-02 1.986438441443837293e-05 5.569904723304787978e-05 -2.122600000052692407e-02 4.870355452502155611e-06 -6.730305350111909202e-05 -2.137499886733627841e-02 -1.212980428246413887e-05 -6.330298347940622864e-05 -2.137099961630551867e-02 -2.132120627235231910e-06 4.669784516946938013e-05 -2.131200076870583618e-02 -1.101306765524585646e-04 -3.330259483730929924e-05 -2.134900403230228366e-02 7.865765773676291827e-06 -3.014395881905153046e-07 -2.126099969518984931e-02 9.886887612853017431e-05 -3.230260252785770224e-05 -2.133799553583238737e-02