-1.412881087140000091e+03
-1.412881088930000033e+03
-1.412881092229999922e+03
-1.412881097429999954e+03
-1.412881104470000082e+03
