-1.412881141820000039e+03
-1.412881143589999965e+03
-1.412881146899999976e+03
-1.412881152070000098e+03
-1.412881158319999940e+03
