-1.412880912410000064e+03
-1.412880914139999959e+03
-1.412880917299999965e+03
-1.412880922260000034e+03
-1.412880929120000019e+03
