1.630498813696974469e-01 4.709137174139583679e-04 2.925632854334475185e-03 -5.873124814490171888e-03 4.030481668609479451e-04 3.072755129946059052e-03 -6.339145011306408957e-03 -5.319446911824010421e-04 3.550749409793932040e-03 -8.001086094459985542e-04 3.680039444829643139e-03 2.737915246604306907e-03 -1.020150161338476049e-03 -3.616947905715661889e-03 3.618009742339035016e-03 8.688069489378888140e-05 -4.295854135371180159e-05 2.929004149635082779e-03 -4.210845317812889348e-04 2.500030443026704605e-03 2.123947410138544815e-03 2.878715473260479098e-04 -2.319555654241104976e-04 3.150015013918011208e-03 -5.911654682127137671e-04 -2.363942570629184482e-03 4.018009446474700430e-03 -2.412433245825146820e-05 -1.495669639733617366e-05 3.052999232527961546e-03 4.987285306595253274e-05 3.104423810198638601e-05 3.123001593628752307e-03 -1.912581643482908264e-05 -3.795618990936521837e-05 3.088999762187311354e-03 4.875052028636154109e-06 3.104350773586378383e-05 3.068999761240650583e-03 2.687488596775403931e-05 -2.495646695102011356e-05 3.072001451051340794e-03 -1.981277184122446874e-04 -2.295538339818340272e-05 3.135992260444817829e-03 1.587338322366445685e-05 -1.995593376013801585e-05 3.109000932198765447e-03 -1.512392915020207434e-05 3.204316895080200925e-05 3.043998932669104724e-03 -9.127312119193366048e-06 2.804434101024346824e-05 3.126999233628108710e-03 -2.400947433840936764e-03 2.901984370103941665e-03 -1.235138913485058854e-03 -2.374299593594969039e-03 -2.873894614615651443e-03 7.301944068803726921e-03 5.287350143762925271e-05 -2.495600526387781724e-05 3.106002509761862998e-03 1.118808507542151833e-04 5.204141070621648468e-05 2.927003820770690198e-03 -1.133123860910556589e-03 -3.795599818582494247e-05 3.040954399203787874e-03 9.086876446792145894e-05 -4.195439039175581316e-05 3.222004298068351352e-03 2.656873837581767532e-03 -8.958157609843751451e-06 3.098108320021392224e-03 -5.701720562461694806e-04 -4.299397658857954897e-04 4.216982881633038471e-03 -3.990772539299004503e-04 4.590273352471560802e-04 1.905977243015158449e-03 1.630631533736031369e-01 -2.191811846797978090e-04 -3.767356827415865774e-03 -6.125893849259747906e-03 -5.370323066018785471e-04 -2.617241840042199615e-03 -6.098874921477607548e-03 3.889613346893465006e-04 -3.064253868772659570e-03 -4.018324760160024104e-04 2.595942695942391777e-03 -4.064053171478222010e-03 -6.059135032637893905e-04 -2.280030262734826681e-03 -2.167992349519701906e-03 2.941231465036056093e-04 -2.510431747177213038e-04 -3.028984466635388072e-03 -8.048572428307552550e-04 3.675951929214250034e-03 -3.435084894550483742e-03 1.021315485765673253e-04 -2.604588831980536785e-05 -3.230995474847803400e-03 -1.014899358554698832e-03 -3.613035230672687666e-03 -2.540990105042366647e-03 -2.426698425099129211e-03 2.902897693243095077e-03 -7.350139980720456559e-03 5.412435278129880807e-05 -1.104334126772276949e-05 -3.053997642279648005e-03 -2.338049911431086449e-03 -2.844981566869808371e-03 1.170945129298593809e-03 2.645124979442132433e-03 -4.004559685256507256e-05 -3.069891723384390522e-03 -3.758268254843476013e-04 4.529401237973655170e-04 -4.244021729621655359e-03 -5.709214257436578347e-04 -4.380270294324535032e-04 -1.938017039944027247e-03 1.161305438896860433e-04 4.295446933397190314e-05 -3.204995883045736772e-03 8.511898384831249171e-05 -5.504150824497531825e-05 -2.922995756233448105e-03 -1.114870879560130685e-03 -8.044084747576414846e-06 -3.171045287379130849e-03 -1.487246310021682422e-05 -1.044393110034454867e-06 -3.132000593723500721e-03 -7.873986232146273640e-06 -2.204387401046206614e-05 -3.095000010978905813e-03 4.212492134084611008e-05 3.895648381185080254e-05 -3.066998839805950075e-03 1.812580152278090633e-05 -3.304382347827638106e-05 -3.089998796286026316e-03 1.212509911200310133e-05 5.956436416085448063e-06 -3.071999593560641346e-03 -2.287216472695226355e-05 1.595551390765345427e-05 -3.139001160505781613e-03 1.412711558798900977e-05 3.295574013539842974e-05 -3.120999894873002257e-03 -1.908751160774310512e-04 -9.043333745205909687e-06 -3.067007647231613423e-03 2.612682188786645348e-05 -3.004418418743214073e-05 -3.114998513029268272e-03 -2.023416527250325794e-02 5.972075020660019135e-03 4.173091380814936309e-03 -2.927005386827550345e-03 -1.799583669944903669e-05 1.318810651458170787e-04 -2.080780021642561137e-02 -6.405055006903172254e-03 -5.029756506220076952e-03 -9.893000671536830368e-03 -3.599202697067434124e-05 1.559765900451446125e-05 -2.671035862574170500e-03 -1.441985814812452547e-03 8.529116781486398161e-04 -2.754950861015992378e-03 1.541985469733815704e-03 -1.177134046961955411e-03 4.879646055152645759e-04 1.965012476960175704e-03 9.069920116269861773e-04 4.010389028167824247e-04 -1.904014378162513770e-03 -9.919566755548991314e-04 -2.299986200021185228e-04 -6.000301955321616253e-06 -3.400928069756967240e-05 -2.673961208902959040e-03 1.483988993299201241e-03 -9.241299264979223153e-04 -2.718044384944353058e-03 -1.456982814850890000e-03 1.061909976740803242e-03 -9.933010156375047389e-03 -1.359887205700180412e-04 2.465974477320792601e-04 -2.012083265560859688e-02 -5.917044117567664581e-03 -4.223735450493188055e-03 -2.907011916282862662e-03 -3.599358391029943788e-05 2.918821346138460388e-04 -2.093919762911502364e-02 6.408086957398031851e-03 4.976056490363559189e-03 -2.440050413710342491e-04 -4.199806507587419382e-05 1.229906594640525796e-04 3.940362136800005122e-04 -1.906013436946845047e-03 -9.259569323066833748e-04 4.979593039620342203e-04 1.955014312244619627e-03 1.036992560492284131e-03 4.099932575888592219e-05 7.500022308991327602e-05 1.800060620590297061e-05 1.900109396190729900e-05 -7.000397676696089524e-06 -2.699912703438535425e-05 -2.001234919309504287e-06 3.500044107412016354e-05 3.099942230775886418e-05 -2.000675822559482127e-06 -3.099977158615672154e-05 1.600035805409167505e-05 3.000106025912395029e-05 -5.000040628531890761e-05 -2.699806946119398323e-05 2.499949176482899822e-05 2.700016473371391254e-05 1.300063520957952196e-05 3.900094514130069898e-05 -4.100037079980552678e-05 -2.399783057619393664e-05 -1.080048166981671204e-04 3.700177171750303862e-05 1.189950774602089098e-04 5.000047761359999166e-05 -6.600022345449396775e-05 -1.299702821297055374e-05 -3.113145120399817695e-02 1.270653311522044158e-02 3.588155218388534157e-02 -2.869834714889398473e-03 9.082931179741062996e-04 2.051587027939727817e-02 -3.385924925382249873e-02 -1.443289063204204054e-02 5.842825854929591806e-03 -9.803894671296374888e-03 1.037319459504607629e-03 2.199058609071298867e-02 -2.787877807874216546e-03 -2.534692881511484315e-03 2.150792243162452308e-02 -2.784797834799894890e-03 1.723280433099398353e-03 1.962586218661974136e-02 -8.048840492036445906e-04 7.273086278820900400e-04 2.172395693300706657e-02 -9.328413118206351851e-04 -9.607066120988154000e-04 2.064197565380868071e-02 -3.278389241061875690e-04 2.162924036692222165e-04 2.060598360272947183e-02 6.516025715824655352e-05 5.529233699048477106e-05 2.062300188862807582e-02 -3.285050481583754806e-05 4.029615666359611271e-05 2.088699811040570231e-02 5.713461868216301479e-05 2.330126109096344417e-05 2.125200201596497834e-02 7.614913328265735025e-05 -5.703815255984652392e-06 2.089500320114815943e-02 -1.786207899968626461e-05 -7.569985693135967454e-05 2.116900036557688505e-02 1.511626400021603587e-04 -2.170858100714395263e-05 2.056300648236483383e-02 8.915069868598578826e-05 1.729563580652285451e-05 2.085700340446598744e-02 5.148896043684749158e-06 -4.870368876994586761e-05 2.090000091960690989e-02 4.514813330955866588e-05 1.729656345946159593e-05 2.092000161268997571e-02 1.101145856793093710e-03 7.529654474400956335e-05 2.097704379154548271e-02 -1.088556959479370295e-04 1.522298427757977964e-03 2.104297400403054227e-02 -1.218577835767750076e-04 -1.557701675174935369e-03 2.103501714217839713e-02 1.813081576552133534e-03 -4.206817677383260443e-04 2.254607981550361961e-02 1.672204969024767814e-03 3.692755965314707765e-04 1.953106287623321280e-02 -1.383854616500158983e-03 4.029864644873446715e-05 2.098794309644195707e-02 -8.439218677117517071e-04 1.053321914624740169e-03 2.265895072207380762e-02 -2.193853167141702771e-03 -3.370124389534762469e-05 2.095091116174144230e-02 -8.347937006705974036e-04 -1.053723291021433413e-03 1.947098096407265042e-02 -3.215477096620199260e-02 1.339894909784070109e-02 -5.367499341832127242e-03 -3.282756566843539336e-02 -1.372747742105941138e-02 -3.548814217367353419e-02 -2.876109623485108551e-03 8.996924961161146660e-04 -2.184812989356591656e-02 -7.801686697079370306e-04 7.967113844142414015e-04 -2.040004308369839855e-02 -3.211223441268346327e-04 2.586947489641653317e-04 -2.154801676412381253e-02 -9.651252094889869754e-04 -9.043040661348889951e-04 -2.150002649965763665e-02 -9.820179624660488327e-03 9.417223190452121044e-04 -2.012841325622104563e-02 -2.744076699674619264e-03 1.602681121342437948e-03 -2.264313448464225567e-02 -2.789160277304510681e-03 -2.682290912733892307e-03 -2.067307556719540779e-02 1.061862933271432797e-03 7.569874174967025009e-05 -2.118995785298879997e-02 -9.013919970266946605e-05 -1.556300058340531235e-03 -2.116898162531882788e-02 -9.313732585121647879e-05 1.510700128010608210e-03 -2.115602523069402136e-02 -7.942044013374459843e-04 1.031723900168007206e-03 -1.951804698638463439e-02 -8.850752764775471609e-04 -1.048321553270566142e-03 -2.272902119924913311e-02 -2.165132526091605777e-03 -5.730034777699804003e-05 -2.130408737342683739e-02 1.842800981896859517e-03 -4.102804328947439317e-04 -1.967791916101658406e-02 -1.389135419432045195e-03 4.470007958676370212e-05 -2.123105722024610370e-02 1.650925133244838692e-03 4.126767161042135292e-04 -2.271093864489985917e-02 8.186435693794351766e-05 2.069899869081461748e-05 -2.122599697961243675e-02 3.683745614650741344e-05 -1.129160872619267301e-05 -2.056599835897584064e-02 -3.914850134426082969e-05 3.270357361547453185e-05 -2.091000207726233934e-02 3.285137251563489670e-05 2.770355977364144688e-05 -2.090699907447502587e-02 1.185155106290077114e-05 -4.296494669190129572e-06 -2.091199947591982147e-02 4.085020252470555988e-05 -6.229606368077995654e-05 -2.087999747273460577e-02 7.084811481691678076e-05 2.770466424341657847e-05 -2.082699752715705052e-02 1.198643545557058563e-04 1.769896893726312544e-05 -2.122599538968680116e-02 -1.115922507771110877e-05 -3.729273371897587016e-05 -2.064799994487861654e-02
1.627598820629758136e-01 4.719137034602215717e-04 2.908621031125691123e-03 -5.871123598351645802e-03 3.960477399618003952e-04 3.042755310659993676e-03 -6.350144160077512284e-03 -5.369449803026419329e-04 3.529749032772908947e-03 -8.001082038047453281e-04 3.678039303051891008e-03 2.727915274969129958e-03 -1.019149428364185062e-03 -3.616948161698974127e-03 3.600009783076618675e-03 8.288089066557167007e-05 -5.295860910969587876e-05 2.924004128533960831e-03 -4.140843587172794065e-04 2.513030380833239374e-03 2.119947510877295827e-03 2.888721244691400407e-04 -2.229557646971490499e-04 3.136014927052005376e-03 -6.021658354747240092e-04 -2.364942434415967260e-03 4.027009012714735312e-03 -2.812403957331891286e-05 -4.956792510927207855e-06 3.045998927873429414e-03 3.987252887467341932e-05 3.304435935410922456e-05 3.131001158057277779e-03 -5.125761621277904441e-06 -1.995621505092136919e-05 3.088000077080414133e-03 6.875297135590908328e-06 3.204342110299848435e-05 3.062999828510167000e-03 1.487485074188123912e-05 -1.795644337797655768e-05 3.073000863155853427e-03 -1.891273065098683019e-04 -1.695553222370730831e-05 3.125992541875193334e-03 1.787353670248385359e-05 -3.195599203610203679e-05 3.105001183777347969e-03 -1.812410691897016924e-05 1.304322801288735117e-05 3.047999079880338909e-03 -9.126829737701125798e-06 2.004417087750560625e-05 3.114999347061371635e-03 -2.425949155849084233e-03 2.886984985147762837e-03 -1.193139718878927918e-03 -2.362301132377534092e-03 -2.862894085256490178e-03 7.339944401463216993e-03 5.787235576494752844e-05 -3.195561219988274235e-05 3.134002812584434517e-03 9.787820391122605305e-05 5.204234322486127312e-05 2.992003250618350749e-03 -1.113125560232396463e-03 -2.395541837975416434e-05 3.082955015093078333e-03 8.686706438241389018e-05 -2.895379179367648441e-05 3.264003950834978591e-03 2.628872279243041430e-03 -2.295759692831622205e-05 3.136107378290924584e-03 -5.551733577583439511e-04 -4.279393239414878481e-04 4.248983464060530901e-03 -3.910780660026154268e-04 4.620276125387916071e-04 1.925977526230085056e-03 1.627521535437966294e-01 -2.101809978800820561e-04 -3.771369619196716146e-03 -6.142893433417939524e-03 -5.260324350700064508e-04 -2.627242688242770619e-03 -6.089873359205255805e-03 4.079607888842418030e-04 -3.102253771627180683e-03 -3.938316177507033785e-04 2.599942391944316897e-03 -4.085052902402945378e-03 -6.109129417871905733e-04 -2.291030457307872449e-03 -2.181992397155545216e-03 2.891243352478477984e-04 -2.410435819598142173e-04 -3.057984811990319737e-03 -8.168565576186836768e-04 3.666951697588589649e-03 -3.452085255585022900e-03 9.213267074619142273e-05 -4.904627746579531215e-05 -3.258995555941726456e-03 -9.968978237148834725e-04 -3.629035783521229307e-03 -2.578989145187506830e-03 -2.426698436852731643e-03 2.887897693244607066e-03 -7.350139768054005270e-03 6.312458847956592704e-05 -2.204343338035142391e-05 -3.059997119831011931e-03 -2.346050209007507614e-03 -2.860981461359658664e-03 1.177945030369493065e-03 2.635125349072280510e-03 -3.604571662316502251e-05 -3.078892187295589368e-03 -3.608265333987471183e-04 4.619400128069483581e-04 -4.251021246402251694e-03 -5.769218642650396226e-04 -4.260268687799372359e-04 -1.927017454412521119e-03 1.081302564997206839e-04 3.995457484281112582e-05 -3.197996166285762328e-03 9.311883584621350319e-05 -3.604145779967853302e-05 -2.918995699847863872e-03 -1.111871246050178882e-03 -8.043959496406613942e-06 -3.162045165224943583e-03 -1.987279513137780882e-05 -9.044275771884278096e-06 -3.124000683913085927e-03 1.255235439914149437e-07 -2.404371014068533416e-05 -3.082999656867724605e-03 4.112389940280779710e-05 3.395683904023510166e-05 -3.041998809661223668e-03 1.712514842302315253e-05 -3.504359585035278518e-05 -3.073998808666223923e-03 5.124617519890149200e-06 1.495661202969559404e-05 -3.060000006217625159e-03 -1.587282253478614197e-05 7.955735272212665366e-06 -3.123000762052589776e-03 1.412671151388284416e-05 3.695588191294881170e-05 -3.110999951593352002e-03 -1.848758514082481108e-04 -1.204308324256387315e-05 -3.049007360389949500e-03 2.012617819513754660e-05 -2.004395264573751066e-05 -3.098998899146883194e-03 -2.012316926012833185e-02 5.924076308998434820e-03 4.270096581271884927e-03 -2.896008278032902519e-03 -1.799485434885908142e-05 2.028823274262001801e-04 -2.067780418834500727e-02 -6.329053705098593510e-03 -4.930752290111486101e-03 -9.875006236202518023e-03 -1.799009870845499296e-05 1.525981366527371860e-04 -2.668040651964310225e-03 -1.421984144183604344e-03 9.709115166462310882e-04 -2.701954939412539846e-03 1.533986846015362353e-03 -1.077131775427698449e-03 4.859600471085812664e-04 1.916014052266392991e-03 1.017992624792508427e-03 3.930362512673759743e-04 -1.910013450341240980e-03 -9.269569163155510442e-04 -2.300019215244534208e-04 -9.999153553493949259e-06 4.699077593818671878e-05 -2.649955749196008896e-03 1.487987074682311410e-03 -1.058129005783982985e-03 -2.708040186788259005e-03 -1.451984282994278098e-03 9.589103131562457189e-04 -9.862007475910651924e-03 -1.449897118963318051e-04 1.806004665737332880e-04 -1.996782794698096983e-02 -5.884045867815870454e-03 -4.338729687962257844e-03 -2.887006541148568785e-03 -3.599547103921050211e-05 1.598829491535753956e-04 -2.080819225488134833e-02 6.355084969184096252e-03 4.843062576340156564e-03 -2.380006356895545555e-04 -3.199960097675847348e-05 1.499076211192121778e-05 3.940388754224974973e-04 -1.887014358505459269e-03 -9.909572016237654189e-04 4.859620150296510739e-04 1.933013371730501985e-03 9.699923838151501597e-04 2.399999060219386909e-05 3.999999538185516782e-05 1.000410188958512532e-06 4.900169299602315622e-05 -2.200063383199904520e-05 -4.199769272845587411e-05 -1.300056851383098348e-05 2.000208667883489375e-06 1.399944226039417244e-05 -1.700005481106297919e-05 -1.799997250945537989e-05 9.995629443438284318e-07 5.400160841590217938e-05 -2.600060939098584905e-05 -3.999743241500562055e-05 2.000014722028362383e-05 3.199994180346482219e-05 -2.999639268619822901e-06 3.400225134662200681e-05 -3.700082057467961452e-05 -5.599809086175623764e-05 -9.500332960222477056e-05 6.400125113519801792e-05 8.299522406512535480e-05 4.100195845920125669e-05 -4.700072681007704537e-05 -4.899766404467093369e-05 -3.085044141401600132e-02 1.267652947835286315e-02 3.564056405200144440e-02 -2.906826429722425120e-03 9.322902688500859722e-04 2.031286843264817205e-02 -3.366825073160982507e-02 -1.429189022867450101e-02 5.881831633511251829e-03 -9.706889840484761445e-03 1.018317696398247799e-03 2.187159031012367652e-02 -2.774871106993568454e-03 -2.609695245196903563e-03 2.134192402448216105e-02 -2.802792583388732418e-03 1.669278604085375857e-03 1.949586221936449454e-02 -7.628789998293366561e-04 7.793068511221795799e-04 2.160095790615345138e-02 -9.678380165378592430e-04 -9.647077330949710991e-04 2.056097428536524455e-02 -3.218358896375003025e-04 1.912913356391133537e-04 2.053098420156838563e-02 4.016229476314778159e-05 5.291633502865714320e-06 2.057200157954237885e-02 -2.848161054189093402e-06 1.729531086389902758e-05 2.082899965817371427e-02 5.213813632503941343e-05 -8.699968459026406005e-06 2.116500226613002994e-02 4.714934631379185125e-05 6.296136560717316004e-06 2.089000185011495939e-02 6.139708804482517421e-06 -2.870048537320617216e-05 2.112600067656240227e-02 1.421637199079493893e-04 5.291057414420096937e-06 2.053700573310172917e-02 5.015171125431826075e-05 1.029531189919453509e-05 2.083200191562037742e-02 3.415094694952896636e-05 -2.970442036851797497e-05 2.085000183118056530e-02 3.615200258039782521e-05 1.829522361576668466e-05 2.082500123211286289e-02 1.031149591414830388e-03 6.029529519807924918e-05 2.088504115383788343e-02 -8.785285804372942322e-05 1.506297418870996239e-03 2.097297508607770186e-02 -7.885443196638249150e-05 -1.541702871424602880e-03 2.095301866640700283e-02 1.779087268095052828e-03 -4.326837260065978887e-04 2.240607860125798725e-02 1.656207474165763112e-03 3.962747442111701820e-04 1.947006184195668871e-02 -1.351850418362311517e-03 4.529716107943100649e-05 2.088494432871612280e-02 -8.409165614928441196e-04 1.017320054988188208e-03 2.252795135475762350e-02 -2.153849343333784794e-03 -3.870260792745395194e-05 2.085691286155168939e-02 -8.337905017222747807e-04 -1.024724397675391609e-03 1.939298059371087277e-02 -3.189677462426439986e-02 1.335595015765581733e-02 -5.278488226291443500e-03 -3.262658355205307059e-02 -1.363247132604346150e-02 -3.504713533607994175e-02 -2.938121914858781748e-03 9.076968263552695221e-04 -2.154613253196153294e-02 -7.401766541600492046e-04 7.927141319426895486e-04 -2.020404139833549897e-02 -3.331327334410804741e-04 1.996983595260893988e-04 -2.129401641652209701e-02 -9.851355698293597432e-04 -9.783004634852788921e-04 -2.124702626515535125e-02 -9.706188116604837907e-03 9.657251929404617446e-04 -1.991940895450462767e-02 -2.780089175868292496e-03 1.634685502110249950e-03 -2.233613640456671642e-02 -2.802168479396206606e-03 -2.652288038643303442e-03 -2.047107652208715600e-02 1.030854797723468981e-03 3.470158740796163278e-05 -2.099095853423187108e-02 -8.714652553849229044e-05 -1.551297508686858354e-03 -2.098898157421242097e-02 -7.714527974903838154e-05 1.493702880154479428e-03 -2.096102433831969689e-02 -8.262113575223858095e-04 1.040726349625984044e-03 -1.934704841721070212e-02 -8.480838333446705235e-04 -1.003318590731138707e-03 -2.251802033077314469e-02 -2.141141889529011699e-03 -2.297091503721509636e-06 -2.107308717611813820e-02 1.789792531570450970e-03 -4.372774565895856062e-04 -1.947092093661450390e-02 -1.361143240207270729e-03 4.170277979988350789e-05 -2.103905603770746605e-02 1.653914042285971201e-03 3.936805701174791983e-04 -2.243893825361265373e-02 4.486194190189485487e-05 4.699864153211800988e-06 -2.116699825949455716e-02 3.783692755833135296e-05 -1.029142519794992043e-05 -2.055299833244483496e-02 8.510412904412004539e-07 2.070369825258702146e-05 -2.089900027830535537e-02 3.584826675927700742e-05 1.370463493851194369e-05 -2.083099875389443287e-02 1.885054635684396690e-05 1.270385429300706482e-05 -2.088699943191908368e-02 4.584957919576390829e-05 -2.629584075466414255e-05 -2.086399777954470874e-02 4.184765515812694924e-05 1.270484290756626588e-05 -2.081599849540551050e-02 1.348632464612761783e-04 6.699339993904521161e-06 -2.119899462294373704e-02 8.839642557915441167e-06 -2.729235240163693682e-05 -2.061999927226525892e-02