3.124429999999999819e+00 3.082180000000000142e+00 3.889050000000000118e+00 7.843700000000000117e-01 3.800739999999999785e+00 1.846090000000000009e+00 2.453450000000000131e+00 1.079660000000000064e+00 1.846119999999999983e+00 4.605870000000000353e+00 3.800749999999999851e+00 1.846090000000000009e+00 2.223809999999999842e+00 4.336610000000000298e+00 7.603839999999999932e+00 3.892889999999999961e+00 1.615539999999999976e+00 7.603880000000000194e+00 6.045300000000000118e+00 4.336630000000000429e+00 7.603850000000000442e+00 6.945920000000000094e+00 3.082180000000000142e+00 3.889060000000000183e+00 4.563869999999999649e+00 3.618069999999999897e+00 9.646810000000000329e+00 6.003320000000000434e+00 4.153940000000000410e+00 1.540456000000000003e+01 3.663260000000000183e+00 4.872489999999999988e+00 1.336159999999999926e+01 5.332320000000000171e+00 2.151409999999999823e+00 1.336162999999999990e+01 7.484750000000000014e+00 4.872499999999999609e+00 1.336159999999999926e+01 8.385360000000000369e+00 3.618079999999999963e+00 9.646810000000000329e+00 9.824799999999999756e+00 4.153940000000000410e+00 1.540456999999999965e+01 3.607829999999999870e+00 8.524399999999999977e+00 3.889060000000000183e+00 2.936840000000000117e+00 6.521869999999999834e+00 1.846119999999999983e+00 5.276880000000000237e+00 5.803289999999999615e+00 3.889050000000000118e+00 4.376290000000000013e+00 7.057739999999999903e+00 7.603869999999999685e+00 7.429319999999999702e+00 8.524399999999999977e+00 3.889050000000000118e+00 5.047259999999999636e+00 9.060280000000000555e+00 9.646800000000000708e+00 6.716310000000000002e+00 6.339179999999999815e+00 9.646819999999999951e+00 6.486690000000000289e+00 9.596159999999999357e+00 1.540455000000000041e+01 5.815719999999999779e+00 7.593619999999999592e+00 1.336162999999999990e+01 8.155760000000000787e+00 6.875060000000000393e+00 1.540456000000000003e+01 8.868759999999999977e+00 9.060269999999999158e+00 9.646810000000000329e+00 1.030818999999999974e+01 9.596159999999999357e+00 1.540456999999999965e+01 1.267759999999999998e+00 9.242940000000000822e+00 1.846090000000000009e+00 5.089269999999999960e+00 9.242950000000000443e+00 1.846100000000000074e+00 3.420230000000000103e+00 1.196406999999999954e+01 1.846130000000000049e+00 5.760279999999999845e+00 1.124549999999999983e+01 3.889060000000000183e+00 2.707199999999999829e+00 9.778840000000000643e+00 7.603850000000000442e+00 6.528699999999999726e+00 9.778819999999999624e+00 7.603860000000000063e+00 4.859670000000000378e+00 1.249994000000000050e+01 7.603880000000000194e+00 7.199699999999999989e+00 1.178139000000000003e+01 9.646800000000000708e+00 4.146639999999999660e+00 1.031471999999999944e+01 1.336161000000000065e+01 7.968140000000000001e+00 1.031470999999999982e+01 1.336159999999999926e+01 6.299120000000000275e+00 1.303584000000000032e+01 1.336163999999999952e+01 8.639150000000000773e+00 1.231727000000000061e+01 1.540456000000000003e+01 6.243669999999999831e+00 1.668771999999999878e+01 3.889050000000000118e+00 4.091219999999999857e+00 1.396659999999999968e+01 3.889040000000000052e+00 1.751169999999999893e+00 1.468515000000000015e+01 1.846100000000000074e+00 5.572650000000000325e+00 1.468515999999999977e+01 1.846090000000000009e+00 3.190609999999999946e+00 1.522104000000000035e+01 7.603839999999999932e+00 7.012100000000000222e+00 1.522104000000000035e+01 7.603850000000000442e+00 7.912709999999999688e+00 1.396659999999999968e+01 3.889050000000000118e+00 7.683089999999999975e+00 1.722360000000000113e+01 9.646819999999999951e+00 5.530660000000000132e+00 1.450248000000000026e+01 9.646810000000000329e+00 9.122540000000000759e+00 1.775947999999999993e+01 1.540456999999999965e+01 6.970100000000000406e+00 1.503836000000000084e+01 1.540456000000000003e+01 4.630040000000000155e+00 1.575693000000000055e+01 1.336161000000000065e+01 8.451539999999999608e+00 1.575690999999999953e+01 1.336159999999999926e+01 9.352140000000000342e+00 1.450248000000000026e+01 9.646819999999999951e+00 1.079160000000000075e+01 1.503837000000000046e+01 1.540456999999999965e+01 6.274949999999999584e+00 1.079660000000000064e+00 1.846130000000000049e+00 1.076742999999999917e+01 3.082190000000000207e+00 3.889050000000000118e+00 8.427360000000000184e+00 3.800730000000000164e+00 1.846090000000000009e+00 1.009642999999999979e+01 1.079649999999999999e+00 1.846139999999999892e+00 7.714389999999999858e+00 1.615539999999999976e+00 7.603880000000000194e+00 9.866809999999999192e+00 4.336619999999999919e+00 7.603860000000000063e+00 1.153588000000000058e+01 1.615529999999999911e+00 7.603880000000000194e+00 1.220686000000000071e+01 3.618059999999999832e+00 9.646810000000000329e+00 9.153810000000000002e+00 2.151409999999999823e+00 1.336163999999999952e+01 1.364630999999999972e+01 4.153950000000000031e+00 1.540456000000000003e+01 1.130625000000000036e+01 4.872499999999999609e+00 1.336161000000000065e+01 1.297531999999999996e+01 2.151409999999999823e+00 1.336163999999999952e+01 6.758329999999999949e+00 6.521849999999999703e+00 1.846119999999999983e+00 9.098369999999999180e+00 5.803300000000000125e+00 3.889050000000000118e+00 1.125080999999999953e+01 8.524390000000000356e+00 3.889060000000000183e+00 1.057984000000000080e+01 6.521860000000000213e+00 1.846119999999999983e+00 8.197770000000000223e+00 7.057739999999999903e+00 7.603889999999999816e+00 1.201925999999999917e+01 7.057750000000000412e+00 7.603880000000000194e+00 1.291986999999999952e+01 5.803309999999999746e+00 3.889050000000000118e+00 1.053781000000000034e+01 6.339179999999999815e+00 9.646800000000000708e+00 1.269025000000000070e+01 9.060269999999999158e+00 9.646810000000000329e+00 9.637209999999999610e+00 7.593609999999999971e+00 1.336163999999999952e+01 1.197724999999999973e+01 6.875049999999999883e+00 1.540456000000000003e+01 1.412969999999999970e+01 9.596159999999999357e+00 1.540455000000000041e+01 1.345870999999999995e+01 7.593630000000000102e+00 1.336163999999999952e+01 1.435931000000000068e+01 6.339179999999999815e+00 9.646800000000000708e+00 1.579874000000000045e+01 6.875060000000000393e+00 1.540456000000000003e+01 8.910769999999999413e+00 9.242950000000000443e+00 1.846090000000000009e+00 7.241729999999999556e+00 1.196406999999999954e+01 1.846139999999999892e+00 9.581770000000000564e+00 1.124549999999999983e+01 3.889050000000000118e+00 1.106321999999999939e+01 1.196406999999999954e+01 1.846130000000000049e+00 1.035019999999999918e+01 9.778840000000000643e+00 7.603860000000000063e+00 8.681169999999999831e+00 1.249995000000000012e+01 7.603880000000000194e+00 1.250266000000000055e+01 1.249995000000000012e+01 7.603889999999999816e+00 1.340326999999999913e+01 1.124549999999999983e+01 3.889050000000000118e+00 1.102120000000000033e+01 1.178139000000000003e+01 9.646819999999999951e+00 1.178964000000000034e+01 1.031470000000000020e+01 1.336159999999999926e+01 1.012060999999999922e+01 1.303583000000000069e+01 1.336163999999999952e+01 1.246063999999999972e+01 1.231727000000000061e+01 1.540456000000000003e+01 1.394209999999999994e+01 1.303583000000000069e+01 1.336163999999999952e+01 1.484270000000000067e+01 1.178138000000000041e+01 9.646800000000000708e+00 1.628212999999999866e+01 1.231725999999999921e+01 1.540456000000000003e+01 1.006516000000000055e+01 1.668772999999999840e+01 3.889050000000000118e+00 1.173420999999999914e+01 1.396659999999999968e+01 3.889050000000000118e+00 9.394149999999999778e+00 1.468515999999999977e+01 1.846090000000000009e+00 1.083360000000000056e+01 1.522104000000000035e+01 7.603839999999999932e+00 1.388665999999999912e+01 1.668771999999999878e+01 3.889060000000000183e+00 1.150459000000000032e+01 1.722359000000000151e+01 9.646819999999999951e+00 1.317365000000000030e+01 1.450248000000000026e+01 9.646800000000000708e+00 1.294403999999999932e+01 1.775947999999999993e+01 1.540456000000000003e+01 1.461308000000000007e+01 1.503836000000000084e+01 1.540456000000000003e+01 1.227303999999999995e+01 1.575691999999999915e+01 1.336159999999999926e+01 1.532609000000000066e+01 1.722360000000000113e+01 9.646819999999999951e+00 1.676552999999999827e+01 1.775947000000000031e+01 1.540456999999999965e+01 8.781299999999999661e-01 2.080929999999999946e+00 2.867570000000000174e+00 1.504250000000000087e+00 4.067569999999999908e+00 4.727490000000000414e+00 2.404589999999999783e+00 2.815339999999999954e+00 1.007789999999999964e+00 2.521700000000000053e-01 9.421000000000000207e-02 1.007789999999999964e+00 3.173319999999999919e+00 1.346500000000000030e+00 4.727540000000000298e+00 4.699620000000000353e+00 2.080929999999999946e+00 2.867570000000000174e+00 5.325750000000000206e+00 4.067590000000000039e+00 4.727479999999999905e+00 4.073660000000000281e+00 9.421000000000000207e-02 1.007789999999999964e+00 2.317569999999999908e+00 2.616800000000000015e+00 8.625320000000000320e+00 3.844040000000000123e+00 3.351230000000000153e+00 6.765550000000000175e+00 1.691610000000000058e+00 6.300900000000000389e-01 6.765539999999999665e+00 6.139059999999999739e+00 2.616810000000000080e+00 8.625320000000000320e+00 5.513110000000000177e+00 6.300900000000000389e-01 6.765559999999999796e+00 2.943690000000000140e+00 4.603460000000000107e+00 1.048523999999999923e+01 4.612770000000000259e+00 1.882379999999999942e+00 1.048530000000000051e+01 6.765200000000000102e+00 4.603460000000000107e+00 1.048525000000000063e+01 3.757010000000000183e+00 3.152690000000000214e+00 1.438307000000000002e+01 4.383140000000000036e+00 5.139350000000000307e+00 1.624298999999999893e+01 5.283459999999999823e+00 3.887100000000000222e+00 1.252332000000000001e+01 3.131050000000000111e+00 1.165969999999999951e+00 1.252330000000000076e+01 6.052200000000000024e+00 2.418270000000000142e+00 1.624304000000000059e+01 7.578500000000000014e+00 3.152680000000000149e+00 1.438306000000000040e+01 8.204620000000000246e+00 5.139330000000000176e+00 1.624298999999999893e+01 6.952539999999999942e+00 1.165969999999999951e+00 1.252330000000000076e+01 5.996500000000000163e+00 6.072300000000000253e+00 6.765550000000000175e+00 3.030609999999999804e+00 4.802039999999999864e+00 2.867630000000000123e+00 1.361529999999999907e+00 7.523119999999999585e+00 2.867570000000000174e+00 7.355699999999999461e-01 5.536410000000000053e+00 1.007779999999999898e+00 3.656730000000000036e+00 6.788710000000000022e+00 4.727540000000000298e+00 5.183019999999999960e+00 7.523130000000000095e+00 2.867560000000000109e+00 4.557070000000000398e+00 5.536419999999999675e+00 1.007789999999999964e+00 4.470049999999999635e+00 5.337920000000000442e+00 8.625389999999999446e+00 2.800959999999999894e+00 8.059010000000000673e+00 8.625310000000000699e+00 2.174999999999999822e+00 6.072300000000000253e+00 6.765550000000000175e+00 6.622449999999999726e+00 8.059010000000000673e+00 8.625320000000000320e+00 7.435929999999999929e+00 6.608170000000000321e+00 1.252330000000000076e+01 8.061899999999999622e+00 8.594889999999999475e+00 1.438307000000000002e+01 5.096149999999999736e+00 7.324580000000000091e+00 1.048529000000000089e+01 5.909469999999999779e+00 5.873789999999999623e+00 1.438313999999999915e+01 4.240389999999999660e+00 8.594889999999999475e+00 1.438307000000000002e+01 3.614440000000000097e+00 6.608170000000000321e+00 1.252328999999999937e+01 6.535590000000000011e+00 7.860470000000000290e+00 1.624304000000000059e+01 6.479890000000000150e+00 1.151449999999999996e+01 6.765539999999999665e+00 1.987649999999999917e+00 9.509790000000000632e+00 4.727479999999999905e+00 2.887999999999999901e+00 8.257559999999999789e+00 1.007810000000000095e+00 3.513990000000000169e+00 1.024423999999999957e+01 2.867630000000000123e+00 5.809149999999999814e+00 9.509779999999999234e+00 4.727500000000000036e+00 1.218949999999999978e+00 1.097863000000000078e+01 1.007789999999999964e+00 4.140100000000000335e+00 1.223090999999999973e+01 4.727529999999999788e+00 5.040449999999999875e+00 1.097863000000000078e+01 1.007779999999999898e+00 4.327420000000000044e+00 8.793430000000000746e+00 6.765559999999999796e+00 4.953450000000000131e+00 1.078012999999999977e+01 8.625389999999999446e+00 2.658389999999999809e+00 1.151449999999999996e+01 6.765550000000000175e+00 7.919340000000000046e+00 1.205038000000000054e+01 1.252328999999999937e+01 7.018979999999999997e+00 1.330267000000000088e+01 1.624305000000000021e+01 3.427099999999999813e+00 1.004566999999999943e+01 1.048523999999999923e+01 7.248590000000000089e+00 1.004566999999999943e+01 1.048523999999999923e+01 5.579559999999999853e+00 1.276679999999999993e+01 1.048529000000000089e+01 4.866530000000000022e+00 1.058155999999999963e+01 1.624299999999999855e+01 5.766869999999999941e+00 9.329309999999999548e+00 1.252331000000000039e+01 6.392879999999999896e+00 1.131601000000000035e+01 1.438313999999999915e+01 8.688029999999999475e+00 1.058155000000000001e+01 1.624299999999999855e+01 4.097830000000000084e+00 1.205038000000000054e+01 1.252331000000000039e+01 7.105850000000000222e+00 1.350122000000000000e+01 8.625320000000000320e+00 1.844910000000000050e+00 1.296535000000000082e+01 2.867560000000000109e+00 2.471049999999999969e+00 1.495200999999999958e+01 4.727490000000000414e+00 3.371389999999999887e+00 1.369974999999999987e+01 1.007800000000000029e+00 3.997399999999999842e+00 1.568645000000000067e+01 2.867620000000000058e+00 5.666400000000000325e+00 1.296533999999999942e+01 2.867550000000000043e+00 6.292539999999999800e+00 1.495199000000000034e+01 4.727500000000000036e+00 3.284359999999999946e+00 1.350121000000000038e+01 8.625320000000000320e+00 4.810819999999999652e+00 1.423564999999999969e+01 6.765559999999999796e+00 5.436840000000000117e+00 1.622232999999999947e+01 8.625389999999999446e+00 9.171419999999999462e+00 1.602376999999999896e+01 1.624299999999999855e+01 8.545299999999999230e+00 1.403708999999999918e+01 1.438307999999999964e+01 3.910480000000000178e+00 1.548788000000000054e+01 1.048525000000000063e+01 7.731989999999999696e+00 1.548789000000000016e+01 1.048523999999999923e+01 4.723799999999999777e+00 1.403710000000000058e+01 1.438307000000000002e+01 5.349920000000000009e+00 1.602375999999999934e+01 1.624301000000000172e+01 6.250259999999999927e+00 1.477153000000000027e+01 1.252330000000000076e+01 6.876280000000000392e+00 1.675820999999999827e+01 1.438313999999999915e+01 9.334600000000000009e+00 6.300900000000000389e-01 6.765539999999999665e+00 6.226090000000000124e+00 2.815350000000000019e+00 1.007800000000000029e+00 6.994819999999999816e+00 1.346500000000000030e+00 4.727540000000000298e+00 8.521119999999999806e+00 2.080919999999999881e+00 2.867570000000000174e+00 9.147249999999999659e+00 4.067590000000000039e+00 4.727490000000000414e+00 1.004757999999999996e+01 2.815339999999999954e+00 1.007800000000000029e+00 7.895150000000000112e+00 9.418999999999999595e-02 1.007800000000000029e+00 1.081633000000000067e+01 1.346500000000000030e+00 4.727549999999999919e+00 7.665519999999999889e+00 3.351230000000000153e+00 6.765550000000000175e+00 9.960559999999999192e+00 2.616810000000000080e+00 8.625320000000000320e+00 1.148701999999999934e+01 3.351230000000000153e+00 6.765559999999999796e+00 1.369519000000000020e+01 2.418250000000000011e+00 1.624304000000000059e+01 1.077403999999999940e+01 1.165969999999999951e+00 1.252331000000000039e+01 8.434250000000000469e+00 1.882379999999999942e+00 1.048529000000000089e+01 1.058670000000000044e+01 4.603449999999999598e+00 1.048522999999999961e+01 1.225576000000000043e+01 1.882390000000000008e+00 1.048529000000000089e+01 9.104960000000000164e+00 3.887100000000000222e+00 1.252331000000000039e+01 9.873710000000000875e+00 2.418260000000000076e+00 1.624304000000000059e+01 1.139999000000000073e+01 3.152690000000000214e+00 1.438307999999999964e+01 1.202612000000000059e+01 5.139350000000000307e+00 1.624299999999999855e+01 1.292647000000000013e+01 3.887109999999999843e+00 1.252331000000000039e+01 9.817999999999999616e+00 6.072300000000000253e+00 6.765550000000000175e+00 6.852089999999999570e+00 4.802030000000000243e+00 2.867640000000000189e+00 1.067361000000000004e+01 4.802039999999999864e+00 2.867640000000000189e+00 7.478220000000000312e+00 6.788710000000000022e+00 4.727529999999999788e+00 9.004509999999999792e+00 7.523130000000000095e+00 2.867560000000000109e+00 8.378560000000000230e+00 5.536419999999999675e+00 1.007800000000000029e+00 1.129972000000000065e+01 6.788710000000000022e+00 4.727529999999999788e+00 8.291550000000000864e+00 5.337920000000000442e+00 8.625379999999999825e+00 1.211303000000000019e+01 5.337909999999999933e+00 8.625379999999999825e+00 1.044394999999999918e+01 8.059020000000000294e+00 8.625320000000000320e+00 1.417858999999999980e+01 7.860470000000000290e+00 1.624305000000000021e+01 1.125744000000000078e+01 6.608170000000000321e+00 1.252330000000000076e+01 8.917650000000000077e+00 7.324589999999999712e+00 1.048530000000000051e+01 1.273914000000000080e+01 7.324589999999999712e+00 1.048529000000000089e+01 9.730969999999999231e+00 5.873800000000000132e+00 1.438312999999999953e+01 1.355246999999999957e+01 5.873800000000000132e+00 1.438315000000000055e+01 1.035708999999999946e+01 7.860470000000000290e+00 1.624305000000000021e+01 1.188339000000000034e+01 8.594889999999999475e+00 1.438307999999999964e+01 6.709500000000000242e+00 8.257559999999999789e+00 1.007789999999999964e+00 7.335499999999999687e+00 1.024424999999999919e+01 2.867630000000000123e+00 9.630649999999999267e+00 9.509790000000000632e+00 4.727490000000000414e+00 1.053097999999999956e+01 8.257559999999999789e+00 1.007800000000000029e+00 1.115700000000000003e+01 1.024424999999999919e+01 2.867630000000000123e+00 7.961610000000000298e+00 1.223093000000000075e+01 4.727540000000000298e+00 8.861950000000000216e+00 1.097861999999999938e+01 1.007789999999999964e+00 1.178311000000000064e+01 1.223090999999999973e+01 4.727529999999999788e+00 8.148920000000000385e+00 8.793440000000000367e+00 6.765570000000000306e+00 8.774940000000000850e+00 1.078012999999999977e+01 8.625389999999999446e+00 1.197040999999999933e+01 8.793430000000000746e+00 6.765559999999999796e+00 1.259642999999999979e+01 1.078012000000000015e+01 8.625379999999999825e+00 1.030138999999999960e+01 1.151449999999999996e+01 6.765539999999999665e+00 1.107006999999999941e+01 1.004566999999999943e+01 1.048523999999999923e+01 9.401049999999999685e+00 1.276679999999999993e+01 1.048530000000000051e+01 1.322255000000000003e+01 1.276680999999999955e+01 1.048530000000000051e+01 9.588369999999999393e+00 9.329319999999999169e+00 1.252332000000000001e+01 1.021437000000000062e+01 1.131598999999999933e+01 1.438313999999999915e+01 1.250952000000000019e+01 1.058155000000000001e+01 1.624298999999999893e+01 1.340986000000000011e+01 9.329309999999999548e+00 1.252332000000000001e+01 1.403586999999999918e+01 1.131601000000000035e+01 1.438315000000000055e+01 1.084049000000000085e+01 1.330268000000000050e+01 1.624305999999999983e+01 1.174081999999999937e+01 1.205036999999999914e+01 1.252331000000000039e+01 1.466197000000000017e+01 1.330267000000000088e+01 1.624305999999999983e+01 1.307981999999999978e+01 1.622232999999999947e+01 8.625389999999999446e+00 7.192879999999999718e+00 1.369975999999999949e+01 1.007800000000000029e+00 7.818880000000000052e+00 1.568646000000000029e+01 2.867640000000000189e+00 9.487899999999999778e+00 1.296535000000000082e+01 2.867560000000000109e+00 1.011403999999999925e+01 1.495199000000000034e+01 4.727479999999999905e+00 1.101436999999999955e+01 1.369975999999999949e+01 1.007810000000000095e+00 1.164039999999999964e+01 1.568645000000000067e+01 2.867630000000000123e+00 8.632319999999999993e+00 1.423563000000000045e+01 6.765550000000000175e+00 9.258319999999999439e+00 1.622232999999999947e+01 8.625379999999999825e+00 1.092735000000000056e+01 1.350122999999999962e+01 8.625310000000000699e+00 1.245381000000000071e+01 1.423564000000000007e+01 6.765550000000000175e+00 1.451925999999999917e+01 1.675820999999999827e+01 1.438313999999999915e+01 1.389325999999999972e+01 1.477152000000000065e+01 1.252331000000000039e+01 1.155347000000000079e+01 1.548786999999999914e+01 1.048525000000000063e+01 1.007174999999999976e+01 1.477152000000000065e+01 1.252332000000000001e+01 1.069776000000000060e+01 1.675820999999999827e+01 1.438315000000000055e+01 1.236678999999999995e+01 1.403711000000000020e+01 1.438307000000000002e+01 1.299292999999999942e+01 1.602374999999999972e+01 1.624299999999999855e+01