-2.611799569060000067e+03
-2.611744575459999851e+03
-2.611681086579999828e+03
-2.611610380739999982e+03
-2.611534394339999835e+03
-2.611455781799999841e+03
-2.611377799909999794e+03
-2.611304211380000197e+03
-2.611239341250000052e+03
-2.611187996919999932e+03
