-3.084120000000000195e-01 2.305639999999999912e-01 1.517128999999999950e+00 3.070550000000000224e-01 -2.329239999999999922e-01 -1.516448999999999936e+00 3.069649999999999879e-01 -2.315260000000000096e-01 -1.516534000000000049e+00 3.070300000000000251e-01 -2.328729999999999967e-01 -1.516470999999999902e+00 3.070769999999999889e-01 -2.326100000000000112e-01 -1.516688000000000036e+00 3.072110000000000118e-01 -2.317879999999999940e-01 -1.516618000000000022e+00 3.070840000000000236e-01 -2.326120000000000132e-01 -1.516715999999999953e+00 -3.081360000000000210e-01 2.302720000000000045e-01 1.516952999999999996e+00 -3.082230000000000247e-01 2.304879999999999984e-01 1.517392000000000074e+00 -3.082579999999999765e-01 2.304829999999999934e-01 1.517287000000000052e+00 3.067810000000000259e-01 -2.323840000000000072e-01 -1.516513999999999918e+00 3.072540000000000271e-01 -2.317160000000000053e-01 -1.516915999999999931e+00 3.070189999999999864e-01 -2.326830000000000009e-01 -1.516629999999999923e+00 -3.080339999999999745e-01 2.303010000000000057e-01 1.517444000000000015e+00 -3.082070000000000087e-01 2.305379999999999929e-01 1.517104000000000008e+00 -3.085309999999999997e-01 2.318000000000000060e-01 1.517649000000000026e+00 3.075060000000000016e-01 -2.326050000000000062e-01 -1.516655000000000086e+00 -3.083000000000000185e-01 2.328580000000000094e-01 1.516815000000000024e+00 3.073049999999999948e-01 -2.322940000000000005e-01 -1.516691000000000011e+00 -3.084339999999999860e-01 2.319420000000000093e-01 1.517544999999999922e+00 -3.084180000000000255e-01 2.320109999999999950e-01 1.517700999999999967e+00 -3.078270000000000173e-01 2.325299999999999867e-01 1.516987000000000085e+00 -3.084439999999999960e-01 2.320280000000000120e-01 1.517514999999999947e+00 3.072559999999999736e-01 -2.323270000000000057e-01 -1.516636000000000095e+00 -3.081889999999999907e-01 2.324350000000000027e-01 1.516957000000000111e+00 -3.083029999999999937e-01 2.322289999999999910e-01 1.517447999999999908e+00 -3.083000000000000185e-01 2.318340000000000123e-01 1.517473000000000072e+00 3.070100000000000051e-01 -2.313959999999999906e-01 -1.516494000000000009e+00 3.068790000000000129e-01 -2.311670000000000114e-01 -1.516620000000000079e+00 3.075019999999999976e-01 -2.328840000000000077e-01 -1.517017000000000060e+00 -3.084649999999999892e-01 2.305649999999999922e-01 1.517184000000000088e+00 3.069259999999999766e-01 -2.314329999999999998e-01 -1.516353999999999980e+00 3.070570000000000244e-01 -2.310530000000000084e-01 -1.516423000000000076e+00 3.075350000000000028e-01 -2.325039999999999885e-01 -1.516877000000000031e+00 -3.080800000000000205e-01 2.305230000000000057e-01 1.517130000000000090e+00 3.069970000000000199e-01 -2.315830000000000111e-01 -1.516345000000000054e+00 3.068589999999999929e-01 -2.313719999999999943e-01 -1.516264999999999974e+00 3.075669999999999793e-01 -2.327809999999999879e-01 -1.517114000000000074e+00 -3.084879999999999844e-01 2.303870000000000084e-01 1.517349999999999977e+00 -3.088000000000000189e-01 2.318560000000000065e-01 1.517822000000000005e+00 -3.078899999999999970e-01 2.324090000000000045e-01 1.517074999999999951e+00 3.070399999999999796e-01 -2.319460000000000133e-01 -1.516728000000000076e+00 3.073540000000000161e-01 -2.325240000000000085e-01 -1.516547000000000089e+00 3.070280000000000231e-01 -2.323260000000000047e-01 -1.516161000000000092e+00 3.072520000000000251e-01 -2.322089999999999987e-01 -1.516534000000000049e+00 -3.078520000000000145e-01 2.326660000000000117e-01 1.516896000000000022e+00 -3.084790000000000032e-01 2.323590000000000100e-01 1.517574999999999896e+00 -3.078139999999999765e-01 2.325049999999999895e-01 1.517160999999999982e+00 -3.087579999999999769e-01 2.322059999999999957e-01 1.517673999999999968e+00 -3.081349999999999922e-01 2.322799999999999865e-01 1.517182000000000031e+00 3.072550000000000003e-01 -2.325099999999999945e-01 -1.516852000000000089e+00 3.070749999999999869e-01 -2.322400000000000020e-01 -1.516750000000000043e+00 -3.075060000000000016e-01 2.325939999999999952e-01 1.516791000000000000e+00 -3.077889999999999793e-01 2.321040000000000048e-01 1.517168999999999990e+00 3.073110000000000008e-01 -2.315010000000000123e-01 -1.516793000000000058e+00 -3.082650000000000112e-01 2.300929999999999920e-01 1.517260000000000053e+00 3.070039999999999991e-01 -2.327579999999999927e-01 -1.516566000000000081e+00 3.073020000000000196e-01 -2.316439999999999888e-01 -1.516804999999999959e+00 3.071450000000000014e-01 -2.316719999999999891e-01 -1.516591999999999940e+00 3.072550000000000003e-01 -2.325079999999999925e-01 -1.516707999999999945e+00 3.071150000000000269e-01 -2.314529999999999921e-01 -1.516599999999999948e+00 -3.079779999999999740e-01 2.307609999999999939e-01 1.517076000000000091e+00 3.073960000000000026e-01 -2.315020000000000133e-01 -1.517087999999999992e+00 -3.083060000000000245e-01 2.302349999999999952e-01 1.517412999999999901e+00 3.070450000000000124e-01 -2.325480000000000047e-01 -1.516758999999999968e+00 3.072590000000000043e-01 -2.314470000000000138e-01 -1.516990000000000061e+00 3.074899999999999856e-01 -2.321239999999999970e-01 -1.516922000000000104e+00 -3.079589999999999828e-01 2.323079999999999867e-01 1.516888000000000014e+00 -3.083790000000000142e-01 2.320979999999999988e-01 1.517495000000000038e+00 3.074330000000000118e-01 -2.323250000000000037e-01 -1.516650000000000054e+00 3.077550000000000008e-01 -2.320820000000000105e-01 -1.516984000000000110e+00 3.076479999999999770e-01 -2.324469999999999870e-01 -1.516898999999999997e+00 -3.080749999999999877e-01 2.320480000000000043e-01 1.517185999999999924e+00 -3.081470000000000042e-01 2.325339999999999907e-01 1.517171999999999965e+00 -3.083810000000000162e-01 2.322120000000000017e-01 1.517454999999999998e+00 3.075109999999999788e-01 -2.321070000000000078e-01 -1.517061999999999911e+00 -3.081200000000000050e-01 2.326539999999999997e-01 1.516802999999999901e+00 -3.084910000000000152e-01 2.317269999999999885e-01 1.517786999999999997e+00 3.075089999999999768e-01 -2.325909999999999922e-01 -1.516731999999999969e+00 -3.081840000000000135e-01 2.326280000000000014e-01 1.517115999999999909e+00 -3.082039999999999780e-01 2.326209999999999944e-01 1.516769000000000034e+00 3.068679999999999741e-01 -2.314849999999999963e-01 -1.516277000000000097e+00 3.076180000000000025e-01 -2.328119999999999912e-01 -1.517093000000000025e+00 -3.084600000000000120e-01 2.306350000000000067e-01 1.517182999999999948e+00 3.075539999999999941e-01 -2.328639999999999877e-01 -1.517053999999999903e+00 3.071409999999999973e-01 -2.313880000000000103e-01 -1.516366000000000103e+00 3.076769999999999783e-01 -2.326600000000000057e-01 -1.516817000000000082e+00 3.076220000000000065e-01 -2.326560000000000017e-01 -1.516829999999999901e+00 -3.084890000000000132e-01 2.305850000000000122e-01 1.517052999999999985e+00 -3.081780000000000075e-01 2.307790000000000119e-01 1.517042000000000002e+00 3.068210000000000104e-01 -2.315270000000000106e-01 -1.516216999999999926e+00 3.074189999999999978e-01 -2.329890000000000017e-01 -1.516933000000000087e+00 -3.082550000000000012e-01 2.305329999999999879e-01 1.517150999999999916e+00 3.075959999999999805e-01 -2.327690000000000037e-01 -1.517150999999999916e+00 -3.082960000000000145e-01 2.306219999999999937e-01 1.517212999999999923e+00 -3.084560000000000080e-01 2.308590000000000086e-01 1.517212000000000005e+00 -3.085700000000000109e-01 2.317639999999999978e-01 1.517625000000000002e+00 -3.078509999999999858e-01 2.322750000000000092e-01 1.517004000000000019e+00 3.071119999999999961e-01 -2.322809999999999875e-01 -1.516536000000000106e+00 3.068770000000000109e-01 -2.320859999999999868e-01 -1.516389999999999905e+00 -3.087529999999999997e-01 2.323399999999999910e-01 1.517428999999999917e+00 -3.084979999999999944e-01 2.322780000000000122e-01 1.517752999999999908e+00 -3.077340000000000075e-01 2.323840000000000072e-01 1.517241999999999980e+00 -3.087929999999999842e-01 2.319930000000000048e-01 1.517962999999999951e+00 -3.077920000000000100e-01 2.320280000000000120e-01 1.517069000000000001e+00 3.071639999999999926e-01 -2.323590000000000100e-01 -1.516793000000000058e+00 -3.084890000000000132e-01 2.321340000000000070e-01 1.517760999999999916e+00 -3.087889999999999802e-01 2.321249999999999980e-01 1.517644999999999911e+00 3.299999999999999982e-04 -8.369999999999999619e-04 -6.780000000000000002e-04 -1.139772999999999925e+00 -1.743654000000000037e+00 2.158834999999999837e+00 1.141607000000000038e+00 1.745301999999999909e+00 -2.161232000000000042e+00 1.140678000000000081e+00 1.745476000000000028e+00 -2.160759000000000096e+00 -1.139296000000000086e+00 -1.745047000000000015e+00 2.159133999999999887e+00 3.199999999999999855e-05 -7.820000000000000345e-04 -3.440000000000000132e-04 -1.140622000000000025e+00 -1.744139000000000106e+00 2.159631000000000078e+00 1.140849999999999920e+00 1.745765999999999929e+00 -2.161465999999999887e+00 4.299999999999999894e-04 -1.418999999999999906e-03 6.019999999999999961e-04 1.141129999999999978e+00 1.744709000000000065e+00 -2.160584000000000060e+00 1.140830000000000011e+00 1.744785999999999948e+00 -2.160273000000000110e+00 -2.030000000000000012e-04 -1.881999999999999992e-03 1.150999999999999896e-03 1.140112999999999932e+00 1.744774999999999965e+00 -2.160358000000000001e+00 -1.140360000000000040e+00 -1.744388000000000050e+00 2.160305000000000142e+00 -1.139734000000000025e+00 -1.745759999999999978e+00 2.160610000000000142e+00 -1.140665000000000040e+00 -1.744539000000000062e+00 2.160578000000000110e+00 -3.409999999999999945e-04 -1.433999999999999945e-03 5.400000000000000069e-04 -1.140579999999999927e+00 -1.744372000000000034e+00 2.160168999999999784e+00 1.141718999999999928e+00 1.744909999999999961e+00 -2.161414999999999864e+00 1.140492999999999979e+00 1.744915999999999912e+00 -2.161531999999999787e+00 -1.139413999999999927e+00 -1.744742000000000015e+00 2.159978000000000176e+00 -4.099999999999999912e-04 -1.333999999999999899e-03 5.289999999999999564e-04 -1.140630999999999950e+00 -1.743716000000000044e+00 2.160474999999999923e+00 1.140277999999999903e+00 1.744804999999999939e+00 -2.161481999999999903e+00 1.139966999999999953e+00 1.745468000000000020e+00 -2.159784000000000148e+00 1.268999999999999946e-03 3.069999999999999812e-04 -1.727000000000000019e-03 5.410000000000000312e-04 -4.300000000000000165e-05 -7.269999999999999987e-04 1.140362000000000098e+00 1.745646000000000031e+00 -2.159409999999999830e+00 -1.139609000000000094e+00 -1.743632000000000071e+00 2.158300000000000107e+00 4.199999999999999768e-05 -3.699999999999999947e-04 -1.869999999999999917e-04 1.140058999999999934e+00 1.745387999999999940e+00 -2.159834000000000032e+00 1.199999999999999895e-03 -3.899999999999999929e-05 -1.113999999999999973e-03 -3.300000000000000253e-05 -3.699999999999999811e-05 4.279999999999999950e-04 1.140152999999999972e+00 1.745393999999999890e+00 -2.159494000000000025e+00 -6.899999999999999667e-05 1.210000000000000002e-04 5.519999999999999733e-04 1.140015000000000001e+00 1.745508999999999977e+00 -2.159378999999999937e+00 5.399999999999999798e-05 9.500000000000000523e-05 1.051000000000000068e-03 -1.139709000000000083e+00 -1.743394000000000110e+00 2.159327999999999914e+00 1.247999999999999977e-03 2.229999999999999994e-04 -1.075999999999999917e-03 3.719999999999999891e-04 1.029999999999999964e-04 8.949999999999999623e-04 1.139920999999999962e+00 1.745233999999999952e+00 -2.159184999999999910e+00 -1.139666000000000068e+00 -1.743811000000000000e+00 2.159508999999999901e+00 1.140682999999999891e+00 1.745754000000000028e+00 -2.160051000000000165e+00 -1.139332999999999929e+00 -1.744893999999999945e+00 2.159151000000000042e+00 1.140684000000000031e+00 1.745170000000000110e+00 -2.160572999999999855e+00 1.018999999999999941e-03 -7.020000000000000415e-04 -1.667000000000000079e-03 -1.139644000000000101e+00 -1.744820999999999955e+00 2.159060999999999897e+00 1.140819000000000027e+00 1.745147000000000004e+00 -2.160527999999999782e+00 -1.139696000000000042e+00 -1.743922999999999890e+00 2.159066000000000152e+00 1.140460000000000029e+00 1.745017000000000040e+00 -2.160413999999999835e+00 1.140864000000000100e+00 1.745643000000000056e+00 -2.160804999999999865e+00 7.129999999999999836e-04 3.289999999999999739e-04 -3.319999999999999926e-04 1.141064999999999996e+00 1.745584000000000024e+00 -2.160003999999999813e+00 1.140431999999999890e+00 1.746029000000000053e+00 -2.160343000000000124e+00 -1.139674000000000076e+00 -1.744056999999999968e+00 2.159044999999999881e+00 -1.139688999999999952e+00 -1.744072999999999984e+00 2.159772999999999943e+00 -1.139866999999999964e+00 -1.743859000000000048e+00 2.160112999999999950e+00 -1.140088999999999908e+00 -1.743370000000000086e+00 2.160210000000000186e+00 -1.139408999999999894e+00 -1.744704999999999950e+00 2.159768999999999828e+00 1.140945000000000098e+00 1.745943999999999940e+00 -2.160321000000000158e+00 1.240000000000000000e-03 1.379999999999999933e-04 -1.049999999999999935e-03 -1.139952000000000076e+00 -1.744418000000000024e+00 2.159755999999999787e+00 1.140914999999999901e+00 1.746305999999999914e+00 -2.160607000000000166e+00 4.139999999999999800e-04 -1.157999999999999958e-03 1.384000000000000031e-03 6.549999999999999833e-04 -2.031999999999999952e-03 -1.830000000000000029e-04 -1.140074000000000032e+00 -1.744631000000000043e+00 2.159752999999999812e+00 1.141029999999999989e+00 1.744749000000000105e+00 -2.160737999999999825e+00 6.329999999999999906e-04 -1.399999999999999979e-05 -7.489999999999999913e-04 2.730000000000000222e-04 -1.740000000000000010e-03 7.299999999999999903e-05 -1.140362000000000098e+00 -1.743857999999999908e+00 2.159834000000000032e+00 9.579999999999999757e-04 -1.087000000000000076e-03 1.088999999999999907e-03 1.140992000000000006e+00 1.744728999999999974e+00 -2.159641000000000144e+00 1.010000000000000047e-03 -7.600000000000000418e-05 4.220000000000000118e-04 -1.140522999999999954e+00 -1.744312000000000085e+00 2.160404000000000213e+00 3.260000000000000094e-04 -1.714000000000000029e-03 -8.120000000000000048e-04 -1.140177999999999914e+00 -1.744561999999999946e+00 2.161197000000000035e+00 -1.140719999999999956e+00 -1.744560000000000111e+00 2.161633000000000138e+00 6.560000000000000076e-04 -1.724000000000000055e-03 -8.220000000000000310e-04 -1.139871000000000079e+00 -1.744385999999999992e+00 2.159523000000000081e+00 1.140897999999999968e+00 1.744682999999999984e+00 -2.160886000000000084e+00 5.010000000000000347e-04 -3.319999999999999926e-04 -1.250999999999999942e-03 1.139809000000000072e+00 1.744755999999999974e+00 -2.160048000000000190e+00 1.140940000000000065e+00 1.745060999999999973e+00 -2.160623999999999878e+00 -1.140435000000000088e+00 -1.744950000000000001e+00 2.159044999999999881e+00 -7.739999999999999485e-04 -5.159999999999999656e-04 -3.119999999999999944e-04 -1.140514000000000028e+00 -1.743759999999999977e+00 2.159047000000000160e+00 1.141254999999999908e+00 1.745282000000000000e+00 -2.160813999999999790e+00 1.140014000000000083e+00 1.745737000000000094e+00 -2.160953000000000124e+00 -1.139710000000000001e+00 -1.744688999999999934e+00 2.158600999999999992e+00 1.140513000000000110e+00 1.745006999999999975e+00 -2.160398999999999958e+00 -4.229999999999999819e-04 -1.910000000000000022e-03 1.541000000000000052e-03 1.141300999999999899e+00 1.744899999999999896e+00 -2.160391999999999868e+00 -1.139683999999999919e+00 -1.744483999999999924e+00 2.159288000000000096e+00 1.139642000000000044e+00 1.744834999999999914e+00 -2.161245999999999778e+00 -1.140290999999999944e+00 -1.745610000000000106e+00 2.160737000000000130e+00 -1.141070000000000029e+00 -1.744240999999999930e+00 2.160835000000000061e+00 -1.140063999999999966e+00 -1.745938999999999908e+00 2.160722999999999949e+00 1.140922999999999909e+00 1.744761999999999924e+00 -2.160686999999999802e+00 -1.140063999999999966e+00 -1.744714000000000098e+00 2.160197999999999841e+00 -6.740000000000000114e-04 -1.182000000000000108e-03 5.800000000000000034e-04 -1.140946000000000016e+00 -1.744059999999999944e+00 2.160645999999999844e+00 1.140956999999999999e+00 1.744834999999999914e+00 -2.160664000000000140e+00 1.139790999999999999e+00 1.745956999999999981e+00 -2.159669000000000061e+00 1.020000000000000073e-03 4.490000000000000176e-04 -2.047999999999999907e-03 1.113000000000000057e-03 6.359999999999999551e-04 -1.981999999999999821e-03 -1.140193999999999930e+00 -1.743549999999999933e+00 2.158764000000000127e+00 -3.000000000000000076e-06 -1.440000000000000036e-04 7.499999999999999343e-05 1.139375999999999944e+00 1.745311000000000057e+00 -2.159028000000000169e+00 -1.140012000000000025e+00 -1.743781000000000025e+00 2.158681000000000072e+00 3.409999999999999945e-04 -2.599999999999999840e-05 -5.399999999999999798e-05 1.201999999999999943e-03 -3.100000000000000135e-05 -1.026999999999999918e-03 -4.939999999999999730e-04 6.299999999999999990e-05 8.469999999999999881e-04 -1.140065000000000106e+00 -1.743532999999999999e+00 2.158933999999999909e+00 1.139661000000000035e+00 1.745419999999999972e+00 -2.159222000000000197e+00 -1.140171999999999963e+00 -1.743624000000000063e+00 2.159365999999999897e+00 -1.139982999999999969e+00 -1.743524999999999991e+00 2.159403999999999879e+00 4.749999999999999990e-04 -2.469999999999999865e-04 -3.829999999999999854e-04 8.850000000000000444e-04 7.100000000000000462e-05 -6.780000000000000002e-04 -1.140541000000000027e+00 -1.743703999999999921e+00 2.159661999999999971e+00 -4.369999999999999970e-04 1.759999999999999954e-04 1.012000000000000096e-03 1.140071999999999974e+00 1.744785000000000030e+00 -2.160067000000000181e+00 1.910000000000000077e-04 -5.969999999999999829e-04 -7.590000000000000175e-04 -1.139979999999999993e+00 -1.744720000000000049e+00 2.159117000000000175e+00 1.140765000000000029e+00 1.745095000000000063e+00 -2.160188999999999915e+00 6.830000000000000134e-04 -7.780000000000000457e-04 -8.660000000000000163e-04 -1.140360000000000040e+00 -1.743937000000000070e+00 2.159450999999999787e+00 1.140576999999999952e+00 1.745293999999999901e+00 -2.160340000000000149e+00 -1.140236000000000027e+00 -1.743959000000000037e+00 2.158853999999999829e+00 1.140624000000000082e+00 1.745387999999999940e+00 -2.160540999999999823e+00 -7.600000000000000418e-05 2.559999999999999884e-04 2.369999999999999874e-04 1.140686000000000089e+00 1.745546999999999960e+00 -2.160509999999999931e+00 5.100000000000000366e-04 3.669999999999999760e-04 -1.649999999999999991e-04 1.140082000000000040e+00 1.745819999999999927e+00 -2.159708000000000183e+00 -1.140131000000000006e+00 -1.744145000000000056e+00 2.160124000000000155e+00 -1.140616000000000074e+00 -1.743392999999999970e+00 2.159893999999999981e+00 -1.140239999999999920e+00 -1.743316000000000088e+00 2.159958000000000045e+00 1.140400000000000080e+00 1.745768999999999904e+00 -2.160321999999999854e+00 3.240000000000000150e-04 3.069999999999999812e-04 -6.669999999999999497e-04 -1.140099999999999891e+00 -1.744418000000000024e+00 2.159949000000000119e+00 1.140617999999999910e+00 1.745989999999999931e+00 -2.160343999999999820e+00 7.420000000000000380e-04 1.740000000000000010e-04 -8.940000000000000464e-04 -1.140481000000000078e+00 -1.744224999999999914e+00 2.159285000000000121e+00 1.140535000000000077e+00 1.746358000000000077e+00 -2.160302000000000167e+00 -1.139855999999999980e+00 -1.744019999999999904e+00 2.159041000000000210e+00 8.260000000000000198e-04 -1.900000000000000105e-04 1.098999999999999934e-03 1.140446000000000071e+00 1.744779999999999998e+00 -2.160160999999999998e+00 -1.210000000000000002e-04 -3.999999999999999819e-06 -4.979999999999999618e-04 -1.010000000000000020e-04 -1.918999999999999916e-03 1.869999999999999917e-04 -1.140967999999999982e+00 -1.744064000000000059e+00 2.160051999999999861e+00 1.140921000000000074e+00 1.744839999999999947e+00 -2.160413000000000139e+00 2.139999999999999975e-04 1.890000000000000133e-04 -7.990000000000000140e-04 1.140263999999999944e+00 1.745125999999999955e+00 -2.159558000000000089e+00 2.829999999999999942e-04 -5.980000000000000072e-04 1.213000000000000102e-03 -2.719999999999999979e-04 -1.487999999999999956e-03 1.948000000000000079e-03 1.140635000000000066e+00 1.744588000000000028e+00 -2.159450999999999787e+00 4.800000000000000122e-04 -4.169999999999999987e-04 -1.399000000000000070e-03 1.140765999999999947e+00 1.744645000000000001e+00 -2.160566000000000209e+00 -1.140733999999999915e+00 -1.744397999999999893e+00 2.161293000000000131e+00 1.140428999999999915e+00 1.744745999999999908e+00 -2.160905000000000076e+00 3.449999999999999833e-04 -2.020000000000000040e-04 -1.404000000000000083e-03 6.999999999999999387e-05 -1.955999999999999839e-03 -6.430000000000000169e-04 -1.140946000000000016e+00 -1.744175000000000031e+00 2.160187000000000079e+00