-4.702366290400000253e+02
-4.702366300799999976e+02
-4.702366321499999913e+02
-4.702366353200000049e+02
-4.702366396499999723e+02
-4.702366452399999730e+02
