1.330006127248756730e-04 7.300012193703169210e-05 1.120039999991929436e-01 -3.409999952862896697e-04 -1.710000272772450880e-04 -1.488999997946921462e-03 3.149999653508781168e-04 4.550000237805781477e-04 -4.300000219324327610e-05 -1.019999783016128665e-04 -3.150000080988529815e-04 -3.849999991223286176e-04 3.399999676843763231e-04 4.240000256693369422e-04 -4.500000230027448924e-05 -3.149999922665992877e-04 -2.110000253118571355e-04 -1.489999998050482635e-03 1.220006130196524393e-04 7.100012113106967044e-05 1.120299999992556556e-01 -1.519999796662528169e-04 -2.990000119083344567e-04 -4.129999988623178847e-04 -8.299999074336702175e-05 -4.700000524547141964e-05 1.033000000505095162e-03 -1.329999916534839292e-04 -6.000000936959903804e-05 6.900000007940733241e-04 5.549999964238735636e-04 4.400004192984339883e-05 -4.500000310747035890e-05 -3.370000038734545685e-04 2.099997409906808013e-05 -4.139999981607851102e-04 5.359999933876236815e-04 8.400004049087063439e-05 -4.700000304254815781e-05 -1.199999897572076710e-04 -8.500000838540674140e-05 6.910000007472870973e-04 -9.899999008699847630e-05 -5.400000643258134680e-05 1.056000000600405006e-03 -3.180000071813309198e-04 6.699997556700803636e-05 -3.829999983116106482e-04 -8.980022032351235670e-04 2.924799993367615397e-02 1.593999975741691028e-03 -2.299499897685988725e-02 -1.327500173565263411e-02 3.469000140189161790e-03 2.549700108710858948e-02 -1.422699806964354205e-02 2.013999873471260423e-03 -1.607999982289910149e-03 1.250999898712688071e-03 2.034900000762633263e-02 -2.729999978843292109e-04 1.350999998225715926e-03 1.889400000015744110e-02 -2.209000061648128035e-03 2.299999853254904286e-03 2.034500000989594368e-02 4.289978028111739563e-04 2.919900003446103051e-02 2.017999968465787521e-03 2.061000024350382719e-03 1.194000176621629614e-03 2.077099998743092008e-02 1.033000173154318638e-03 -9.099999029941690078e-04 1.890099999520696711e-02 -4.229998702278685730e-04 -2.410000118062940100e-04 2.020800000257562748e-02 -8.829999129695082416e-04 1.969999516637426580e-04 1.846600000467725489e-02 2.790002645672454498e-04 -2.012999958573006686e-03 2.034900000047069890e-02 2.487900117420564772e-02 -1.540999811681255556e-02 1.583999878064201857e-03 8.820003444532275227e-04 -3.069999912977946620e-03 2.033899999819803808e-02 -2.689998327258066760e-04 -8.640000018992760600e-04 1.846600000234787167e-02 -2.548499887073703285e-02 -1.472000192454432643e-02 2.896000155376978781e-03 -2.195199924278106243e-02 -1.268000169674832547e-02 -3.655399986616238162e-02 -9.250023314043535764e-04 2.802299989167506694e-02 -3.841000002288565141e-02 -1.560000204935996530e-03 1.245999861984318363e-03 -2.005499999263362504e-02 2.444000082153022571e-02 -1.363499818954179953e-02 -3.798800012128558667e-02 9.350001223972709882e-04 -3.081999949317177582e-03 -2.005400000208252750e-02 2.381100090818618828e-02 -1.481099823752676271e-02 -3.840200011663891938e-02 -2.444799913727487353e-02 -1.411400188605484510e-02 -3.708799985095243695e-02 -3.100000522771490809e-04 -9.070000453187834853e-04 -2.189799999738286512e-02 -4.170000933205691529e-04 -2.390000516961513562e-04 -2.018099999745948808e-02 1.053999953896681821e-03 -9.589999417535679084e-04 -2.149200000486000545e-02 3.020000383499772418e-04 -1.970999997195129610e-03 -2.005799999969820960e-02 -9.430001352490598263e-04 1.899999068062614227e-04 -2.189899999498456235e-02 -2.202000288891100242e-03 2.355999813428690838e-03 -2.005599999019863286e-02 -3.070002240723503908e-04 1.393999955311646995e-03 -2.149399999969783814e-02 2.084999800606833573e-03 1.203000138071141619e-03 -1.964000001271054910e-02 4.149976741992021201e-04 2.797999999344513711e-02 -3.798400003023930105e-02
1.340006122015604195e-04 7.700012197270686551e-05 1.119639999991834250e-01 -3.419999955131804658e-04 -1.680000273528753265e-04 -1.488999997944398307e-03 3.159999652586882135e-04 4.560000238532118028e-04 -4.600000219976200616e-05 -1.019999785174639394e-04 -3.120000080968552119e-04 -3.829999991253252496e-04 3.429999679758575907e-04 4.200000258942299743e-04 -4.700000231283855045e-05 -3.159999921854491647e-04 -2.120000253864885145e-04 -1.488999998043963845e-03 1.190006129445989047e-04 6.900012086322494255e-05 1.119889999992742247e-01 -1.509999794504017739e-04 -3.020000118347019691e-04 -4.149999988648411429e-04 -8.199999068429634271e-05 -4.800000517283778596e-05 1.030000000500574291e-03 -1.319999914210732972e-04 -6.300000929296989014e-05 6.910000007915500847e-04 5.529999963427234761e-04 4.500004177758400604e-05 -4.600000309742952590e-05 -3.370000038033441471e-04 1.999997409806921085e-05 -4.149999981597862590e-04 5.349999931607328854e-04 8.700004041524036873e-05 -4.700000304002493475e-05 -1.199999899084681855e-04 -8.300000838540674700e-05 6.910000007452893464e-04 -9.599999001136824098e-05 -5.500000620569057898e-05 1.056000000584844320e-03 -3.210000072569611958e-04 6.799997534011726177e-05 -3.829999982960499618e-04 -8.970022016358484684e-04 2.922699993375378266e-02 1.595999975757147462e-03 -2.297699897754056086e-02 -1.326600173429128872e-02 3.469000140080814431e-03 2.547700108627113866e-02 -1.421599807115714494e-02 2.012999873570669920e-03 -1.603999981815696719e-03 1.243999899005220500e-03 2.033900000761124441e-02 -2.689999976259670428e-04 1.346999998520246071e-03 1.888600000013935382e-02 -2.208000061249544826e-03 2.293999853320546293e-03 2.033500000989641593e-02 4.269978049067417675e-04 2.917100003430577251e-02 2.013999968504796151e-03 2.058000024830115762e-03 1.187000176385748793e-03 2.076199998745446862e-02 1.033000172844629949e-03 -9.069999030091521752e-04 1.888599999520397185e-02 -4.229998700616962128e-04 -2.440000118172816587e-04 2.019700000257862449e-02 -8.789999130302268270e-04 1.969999519552760299e-04 1.845500000465517473e-02 2.760002644253769263e-04 -2.011999958811883614e-03 2.033700000048626125e-02 2.486300117291054268e-02 -1.539199811801065208e-02 1.595999878134539982e-03 8.830003436858851942e-04 -3.059999912904314088e-03 2.033699999818253112e-02 -2.689998330945660068e-04 -8.600000019112625767e-04 1.845400000234387675e-02 -2.546499887200066869e-02 -1.470300192302772570e-02 2.900000155249600302e-03 -2.194099924367593976e-02 -1.266700169590040913e-02 -3.653799986623608442e-02 -9.250023302351327147e-04 2.800899989169504389e-02 -3.839000002287166341e-02 -1.557000204729537584e-03 1.243999862221198058e-03 -2.004499999264818672e-02 2.442300082089536237e-02 -1.362499819080553905e-02 -3.796600012120173590e-02 9.390001223768392954e-04 -3.080999949004667449e-03 -2.004400000210560667e-02 2.379300090772853635e-02 -1.480399823887512158e-02 -3.838900011654655664e-02 -2.443499913768284321e-02 -1.410700188504967513e-02 -3.706599985103118527e-02 -3.060000519083898697e-04 -9.110000450042759395e-04 -2.188599999740094629e-02 -4.160000931511013359e-04 -2.400000516035401862e-04 -2.016399999746401259e-02 1.052999954049589973e-03 -9.599999418152139335e-04 -2.147800000485348623e-02 2.990000383350653775e-04 -1.969999997411032294e-03 -2.004699999968264854e-02 -9.420001352363723598e-04 1.909999068978736846e-04 -2.188299999499108278e-02 -2.199000288749231990e-03 2.354999813667568200e-03 -2.004399999021419174e-02 -3.060002239194421899e-04 1.392999955401261376e-03 -2.147999999970235871e-02 2.084999800569842764e-03 1.204000138078133771e-03 -1.963300001271154824e-02 4.119976753518632385e-04 2.796599999323522850e-02 -3.796700003020875985e-02
1.330006118466419622e-04 7.600012181916420307e-05 1.118859999991899390e-01 -3.429999955076606000e-04 -1.680000274275067083e-04 -1.487999997938878284e-03 3.169999652586882378e-04 4.560000239288420601e-04 -4.600000220528186238e-05 -1.029999782905731648e-04 -3.150000081724854879e-04 -3.829999991168087873e-04 3.439999679648178890e-04 4.200000259678624806e-04 -4.900000231835840108e-05 -3.169999921098189317e-04 -2.130000254621187690e-04 -1.488999998037445188e-03 1.190006125140501738e-04 6.900012078531254814e-05 1.119109999992742160e-01 -1.519999793747715139e-04 -3.030000119103321964e-04 -4.149999988583223773e-04 -7.999999083555686284e-05 -4.600000502157727703e-05 1.030000000487536760e-03 -1.329999915612941101e-04 -6.100000936660239531e-05 6.930000007950722725e-04 5.529999961859430714e-04 4.700004177658512498e-05 -4.700000309942727403e-05 -3.390000038734545629e-04 2.099997394780756560e-05 -4.139999981497453842e-04 5.359999931607329097e-04 8.700004049087062599e-05 -4.700000304554479097e-05 -1.199999898217982158e-04 -8.400000838340897973e-05 6.930000007462882704e-04 -9.399999001688809602e-05 -5.500000605542893991e-05 1.055000000573804624e-03 -3.230000072569611902e-04 6.799997518885674724e-05 -3.829999982850102900e-04 -8.960021994354034312e-04 2.919899993384439743e-02 1.610999975779596341e-03 -2.295699897839292500e-02 -1.325400173276869258e-02 3.479000139958431017e-03 2.545400108536522571e-02 -1.420299807288265791e-02 2.026999873684641375e-03 -1.602999981784225449e-03 1.242999899072859621e-03 2.033100000760672266e-02 -2.689999974912660901e-04 1.344999998517249287e-03 1.888300000014135269e-02 -2.207000061061293369e-03 2.290999853389184132e-03 2.032800000989389358e-02 4.269978069448865940e-04 2.914500003431876041e-02 2.026999968530767120e-03 2.056000024867107607e-03 1.186000176227496343e-03 2.075499998746650754e-02 1.031000172828070447e-03 -9.069999031634094246e-04 1.888299999521501210e-02 -4.229998700948153366e-04 -2.440000118232749115e-04 2.019100000257862543e-02 -8.769999129932354266e-04 1.959999520995444190e-04 1.844800000464513409e-02 2.750002642409973179e-04 -2.009999958893507292e-03 2.033100000048978021e-02 2.483900117170762673e-02 -1.537499811981079580e-02 1.610999878250035525e-03 8.810003434093157965e-04 -3.056999913064564409e-03 2.032799999819057124e-02 -2.679998331922756917e-04 -8.590000018396277970e-04 1.845000000233735712e-02 -2.544299887291762499e-02 -1.469000192135187441e-02 2.912000155115178606e-03 -2.192099924436987854e-02 -1.265600169436283465e-02 -3.651299986635746231e-02 -9.230023280976304683e-04 2.798299989187727141e-02 -3.835900002285672766e-02 -1.558000204539637971e-03 1.241999862152559989e-03 -2.003799999264066836e-02 2.440400082021246253e-02 -1.361399819221554425e-02 -3.793900012110784647e-02 9.380001221996272934e-04 -3.077999949071308187e-03 -2.003500000210308232e-02 2.377200090682978981e-02 -1.478999824043438979e-02 -3.836000011644462304e-02 -2.441599913838782276e-02 -1.409600188358972606e-02 -3.704299985114704874e-02 -3.050000520469629177e-04 -9.080000449126636019e-04 -2.186999999740946513e-02 -4.150000931991323352e-04 -2.390000515229155273e-04 -2.015899999747052668e-02 1.051999954093748744e-03 -9.599999418828531871e-04 -2.147000000484796528e-02 2.980000383091138357e-04 -1.968999997477672865e-03 -2.003799999967812925e-02 -9.400001351756539537e-04 1.909999070601218563e-04 -2.187199999500212197e-02 -2.197000288397032552e-03 2.350999813827818388e-03 -2.003499999022123612e-02 -3.050002237830934967e-04 1.391999955487879456e-03 -2.146899999970687881e-02 2.082999800625041399e-03 1.204000137936862011e-03 -1.962300001270050887e-02 4.119976774728059286e-04 2.793999999326319400e-02 -3.793900003018278733e-02
1.310006110368709350e-04 7.700012153505305962e-05 1.117529999991999923e-01 -3.399999955722511668e-04 -1.670000271986181884e-04 -1.485999997956436672e-03 3.149999653343185007e-04 4.550000237775815213e-04 -4.600000219324327448e-05 -9.999997851194409551e-05 -3.120000079445958219e-04 -3.819999991363650055e-04 3.409999680570076895e-04 4.190000257439683109e-04 -4.600000230079996535e-05 -3.149999922500397258e-04 -2.110000253088605091e-04 -1.486999998050482670e-03 1.170006119311699184e-04 6.700012050120141309e-05 1.117779999992872531e-01 -1.489999794448818894e-04 -3.020000116824425791e-04 -4.139999988758807903e-04 -8.399999068429632356e-05 -4.800000532409830049e-05 1.030000000511614071e-03 -1.289999915668139571e-04 -6.100000906508024848e-05 6.920000007729927962e-04 5.509999963427234275e-04 4.500004162632349151e-05 -4.600000308638981346e-05 -3.360000039435649655e-04 2.199997417569721006e-05 -4.129999981673038514e-04 5.339999933175132657e-04 8.500004034060900607e-05 -4.600000303250733041e-05 -1.179999899084681911e-04 -8.300000823414623247e-05 6.910000007342496746e-04 -9.699998986562757310e-05 -5.700000628231970611e-05 1.055000000592361828e-03 -3.210000073270716171e-04 6.899997534111612088e-05 -3.819999982970488672e-04 -8.950021963494745421e-04 2.915899993393101727e-02 1.621999975814031412e-03 -2.292599897969354802e-02 -1.323600173041316642e-02 3.490000139769335909e-03 2.541700108399448654e-02 -1.418399807566899165e-02 2.038999873869897124e-03 -1.598999981618052938e-03 1.239999899364392947e-03 2.032000000758764358e-02 -2.679999974708344385e-04 1.343999998582890657e-03 1.887300000013683240e-02 -2.203000060959711768e-03 2.288999853682715125e-03 2.031900000987381383e-02 4.259978100363351079e-04 2.910500003425511503e-02 2.038999968576241887e-03 2.053000024876499435e-03 1.185000175988619149e-03 2.074299998748406829e-02 1.031000172627131138e-03 -9.049999031723992551e-04 1.887399999521301164e-02 -4.219998701389742705e-04 -2.440000117556356579e-04 2.018300000257310448e-02 -8.769999130964650259e-04 1.969999520945500389e-04 1.844300000464413683e-02 2.740002638832776888e-04 -2.005999958979126207e-03 2.032100000049130370e-02 2.480500117025022030e-02 -1.535499812237223725e-02 1.620999878417733221e-03 8.810003430571160818e-04 -3.052999913073554516e-03 2.031899999818657584e-02 -2.669998332309146813e-04 -8.590000017709896679e-04 1.844300000233183717e-02 -2.540799887435846866e-02 -1.467000191869182943e-02 2.925000154902006235e-03 -2.189199924551207474e-02 -1.263900169214358417e-02 -3.648699986653452382e-02 -9.230023250856843071e-04 2.794499989190224465e-02 -3.833400002281877467e-02 -1.553000204349738430e-03 1.239999862537703246e-03 -2.003099999266627282e-02 2.437000081891348494e-02 -1.359499819476199869e-02 -3.791400012093915778e-02 9.380001219357452782e-04 -3.073999949064315854e-03 -2.002800000210707906e-02 2.373800090546621458e-02 -1.476999824297885004e-02 -3.833300011627692461e-02 -2.438199913974035266e-02 -1.407600188098932954e-02 -3.701399985135469389e-02 -3.040000519492532926e-04 -9.090000448330378671e-04 -2.186599999741398528e-02 -4.140000931439337352e-04 -2.390000514372965154e-04 -2.014899999747604697e-02 1.051999953981127243e-03 -9.579999418758610103e-04 -2.146300000484996362e-02 2.970000379640817031e-04 -1.963999997547309639e-03 -2.003199999967760631e-02 -9.400001352181650872e-04 1.919999070661151063e-04 -2.186599999500311864e-02 -2.193000288212653033e-03 2.348999814136333054e-03 -2.002899999024131822e-02 -3.050002235931939683e-04 1.389999955494871427e-03 -2.146199999970488034e-02 2.079999800885050463e-03 1.201000137715964528e-03 -1.961700001268094906e-02 4.099976804957918214e-04 2.790199999313890469e-02 -3.791200003013379255e-02
1.290006101614383203e-04 7.500012119800145735e-05 1.115669999992130179e-01 -3.369999955722511480e-04 -1.670000269717274166e-04 -1.485999997972996343e-03 3.119999654099487392e-04 4.540000235506907252e-04 -4.600000217568483036e-05 -9.999997889009538184e-05 -3.070000079445958088e-04 -3.819999991413593828e-04 3.379999680349282730e-04 4.190000255130820373e-04 -5.000000228424039906e-05 -3.119999923902605499e-04 -2.090000250799719649e-04 -1.484999998069039826e-03 1.160006109044768135e-04 6.700012023978004893e-05 1.115919999992927708e-01 -1.469999796071821355e-04 -3.000000115331797669e-04 -4.159999988889182617e-04 -8.099999078200602765e-05 -4.700000510120303334e-05 1.026000000494055537e-03 -1.319999913454430400e-04 -6.400000929296988735e-05 6.910000007925489601e-04 5.489999964939840018e-04 4.300004147506298257e-05 -4.600000307335235010e-05 -3.320000038624148293e-04 2.099997447921712077e-05 -4.119999981883843494e-04 5.339999934466943283e-04 8.300004033661349627e-05 -5.000000303050957507e-05 -1.159999899730587415e-04 -8.200000808088796981e-05 6.930000007222111760e-04 -9.499998995229756195e-05 -5.600000613305693853e-05 1.053000000580323232e-03 -3.200000073325914829e-04 6.899997541574750268e-05 -3.829999983025687274e-04 -8.950021922361936456e-04 2.910599993394999419e-02 1.640999975866972056e-03 -2.288099898149046491e-02 -1.321100172699282704e-02 3.507000139495970465e-03 2.537200108199275453e-02 -1.415599807905137605e-02 2.059999874090322550e-03 -1.596999981662211793e-03 1.239999899507662458e-03 2.031200000757660273e-02 -2.689999972660230346e-04 1.340999998503264934e-03 1.886900000014534937e-02 -2.199000060566648485e-03 2.282999853974248487e-03 2.030800000985772541e-02 4.259978143119162990e-04 2.905000003427609181e-02 2.059999968631180331e-03 2.050000024983600865e-03 1.183000175753737108e-03 2.073499998750262530e-02 1.028000172529421573e-03 -9.039999034032855044e-04 1.886999999522857505e-02 -4.229998701831330361e-04 -2.440000118392569460e-04 2.017500000257862330e-02 -8.749999129893633668e-04 1.949999522378195282e-04 1.843500000463509092e-02 2.760002636067082258e-04 -2.002999958836855499e-03 2.031200000047727119e-02 2.476000116839423282e-02 -1.532899812575561939e-02 1.640999878640155831e-03 8.780003426237662553e-04 -3.047999913310434246e-03 2.030899999819814339e-02 -2.669998334964444127e-04 -8.560000017779818317e-04 1.843600000232883951e-02 -2.536099887639332168e-02 -1.464200191512222450e-02 2.940000154614604011e-03 -2.185499924688503667e-02 -1.261800168930631016e-02 -3.644799986675973519e-02 -9.190023211424480643e-04 2.789599989224771787e-02 -3.829100002279191284e-02 -1.550000204375689928e-03 1.240999862773583921e-03 -2.002199999268382963e-02 2.432600081732467362e-02 -1.357099819804877781e-02 -3.787300012072025018e-02 9.340001213748620268e-04 -3.065999949358846118e-03 -2.002000000209298858e-02 2.370000090379625543e-02 -1.474499824581284452e-02 -3.829300011609214349e-02 -2.433999914136228404e-02 -1.405200187777789871e-02 -3.697899985161050285e-02 -3.040000520397953955e-04 -9.070000448220502968e-04 -2.185499999741598309e-02 -4.150000931809250571e-04 -2.380000515059346473e-04 -2.014199999747152622e-02 1.048999953988294940e-03 -9.569999420877685174e-04 -2.144800000483440203e-02 2.980000379491698275e-04 -1.962999997460691728e-03 -2.002099999968412133e-02 -9.380001350707767522e-04 1.909999072303610317e-04 -2.185299999501316356e-02 -2.188000287633561775e-03 2.341999814523474267e-03 -2.001999999026192467e-02 -3.070002232890252174e-04 1.386999955357595205e-03 -2.144799999969084284e-02 2.076999801091509914e-03 1.199000137499062462e-03 -1.960700001266239140e-02 4.099976843523582548e-04 2.785399999317985861e-02 -3.787100003008584542e-02
1.420006087152361849e-04 7.500012191948905141e-05 1.113049999991412714e-01 -3.569999951107252550e-04 -1.750000285103033286e-04 -1.511999997854608386e-03 3.159999655004908309e-04 4.520000238422240755e-04 -5.700000219576650064e-05 -1.049999788459365316e-04 -3.070000083147560914e-04 -3.739999991137600631e-04 3.389999684942296768e-04 4.130000255897111868e-04 -4.900000228376699175e-05 -3.029999927352927105e-04 -2.040000243933063836e-04 -1.478999998123712960e-03 1.090006093622127682e-04 6.900011945865126026e-05 1.113399999993294059e-01 -1.399999800593159554e-04 -2.930000109897837562e-04 -4.019999989345494429e-04 -8.299999012506082069e-05 -5.700000527044331208e-05 1.008000000515084068e-03 -1.119999910059307963e-04 -6.900000778735685628e-05 6.840000006871463411e-04 5.409999965254554859e-04 4.200004086202991001e-05 -5.400000302819462283e-05 -3.390000030619534145e-04 1.099997395779636175e-05 -4.039999981397566576e-04 5.429999944873105996e-04 6.800004100030495723e-05 -6.700000306520512866e-05 -1.239999898157016680e-04 -8.700000872588508662e-05 6.530000007713643523e-04 -1.049999901775406031e-04 -5.200000687537525236e-05 1.067000000631526321e-03 -3.150000075854338675e-04 7.299997580288867052e-05 -3.739999983341635152e-04 -8.830021864314478892e-04 2.903099993488153160e-02 1.664999975875649510e-03 -2.282999898407515882e-02 -1.317500172311070888e-02 3.532000139178498137e-03 2.530100107890460165e-02 -1.411399808440514346e-02 2.075999874440279114e-03 -1.595999981141615291e-03 1.230999899554325325e-03 2.028300000758007093e-02 -2.599999975293284149e-04 1.341999999149975616e-03 1.883500000009467185e-02 -2.190000060551736474e-03 2.281999854643933581e-03 2.029700000980904501e-02 4.169978201978122886e-04 2.897400003362039095e-02 2.084999968756773292e-03 2.045000025229275643e-03 1.178000175351612798e-03 2.071099998753521756e-02 1.026000172062952430e-03 -8.989999035705281217e-04 1.885399999523461670e-02 -4.249998705739717591e-04 -2.400000120064995062e-04 2.015900000258566763e-02 -8.889999128634776433e-04 1.909999511470318958e-04 1.840300000471636541e-02 2.750002628526300864e-04 -1.994999958939455524e-03 2.028500000047479823e-02 2.469300116500520309e-02 -1.528199813079288150e-02 1.670999878963038907e-03 8.770003419397984831e-04 -3.040999913414032738e-03 2.028099999819667210e-02 -2.699998337194630836e-04 -8.540000020178581527e-04 1.842300000234339818e-02 -2.529399887955710580e-02 -1.459900191003901497e-02 2.956000154201822178e-03 -2.179299924942944278e-02 -1.258100168457128645e-02 -3.640199986713892055e-02 -9.220023152146175367e-04 2.782199989208075652e-02 -3.823100002270143905e-02 -1.543000203488558786e-03 1.229999863312984535e-03 -2.001199999271147806e-02 2.426300081513246484e-02 -1.353799820275854507e-02 -3.781800012040546083e-02 9.460001206958374483e-04 -3.055999948437298965e-03 -2.000600000216921567e-02 2.362800090141414788e-02 -1.470999825121027844e-02 -3.824500011572967012e-02 -2.428099914401931139e-02 -1.401300187326277348e-02 -3.692599985197513035e-02 -3.070000519238783726e-04 -9.070000450279645755e-04 -2.183399999739942324e-02 -4.110000931240787763e-04 -2.370000511794405286e-04 -2.011799999749460527e-02 1.046999954065572702e-03 -9.569999422250447755e-04 -2.143400000482336559e-02 2.920000376648560934e-04 -1.957999997897492701e-03 -2.000399999965599834e-02 -9.340001351927902738e-04 1.939999075518606861e-04 -2.183399999503823560e-02 -2.183000287486173800e-03 2.340999814914610910e-03 -2.000699999028852580e-02 -2.960002231675883978e-04 1.386999956211503295e-03 -2.142599999975156391e-02 2.064999801633608974e-03 1.193000136607481453e-03 -1.959100001259016233e-02 4.089976896696267744e-04 2.778799999316316008e-02 -3.781200003001439908e-02
