-1.412880986619999931e+03
-1.412880987530000084e+03
-1.412880989100000079e+03
-1.412880991609999910e+03
-1.412880995010000106e+03
