-4.702363922999999772e+02
-4.702363929300000223e+02
-4.702363941699999828e+02
-4.702363960700000121e+02
-4.702363986700000282e+02
-4.702364020100000062e+02
