3.939982190547372445e-04 2.228600001252567867e-02 -1.729200002443578160e-02 -4.001999828407539622e-03 -2.012000299157237510e-03 3.519000024100200994e-03 -3.792999959933335968e-03 -5.640002873340388802e-04 -4.689999784998218589e-04 -3.581000179049598914e-03 2.259999727697693719e-03 -1.471999982490858295e-03 1.724400080626034906e-02 -1.198799871399937669e-02 -1.818800008320985498e-02 -2.141999931384755765e-02 -1.026700163634870766e-02 -1.636699987150922950e-02 -3.229000112074418422e-02 1.661699758251026018e-02 2.463900016163780501e-02 -3.096799896723199594e-02 -1.550200236738935936e-02 -2.529999981357653263e-02 -1.433999891202492266e-03 -1.547000109938116100e-03 -1.485999990539265195e-03 -6.619999758231961485e-04 -2.480000490863327198e-04 9.820000039018656098e-04 -1.181000089515161968e-03 1.165999910439932891e-03 -2.409999946457406497e-04 -1.039999949965391183e-04 -3.200000739807231309e-05 4.680000006060289989e-04 -2.920000213362999105e-04 2.499999774764582170e-04 -4.399999986379213258e-04 7.010000100020584435e-04 -1.439999471440081764e-04 -1.610000037255804827e-04 -2.630000569171231915e-04 6.989999793760644665e-04 -7.339999992464926694e-04 1.820000141000170039e-04 -2.799999875158524706e-04 -1.282000000724928300e-03 2.670007770055760760e-04 2.200016110184553381e-05 1.410669999985042222e-01 -9.108999672606558559e-03 -3.052000671440656572e-03 1.749500005332893515e-02 1.093950001138190992e-01 -6.699170674809262185e-05 1.970199939622233401e-02 -2.806000055895942723e-03 2.440999811074300290e-03 2.331900001305045600e-02 9.300003895848009969e-04 -3.688999909652350070e-03 2.003399999855139113e-02 -2.495999797570170112e-03 -1.159000168003472553e-03 2.079300001493525688e-02 -2.180000270899832161e-03 4.986999854356401370e-03 1.925200000705188513e-02 -2.159999510787896908e-03 -4.892000141785601136e-03 2.160000001680939183e-02 5.500015477402668611e-05 -4.739999743195317519e-04 2.154500000016987618e-02 1.387000076446038947e-03 4.800001253022254219e-04 2.042599999186450049e-02 1.052000122807305324e-03 -1.229998998970630280e-04 2.056299999431597525e-02 1.405000111776408657e-03 1.300012666556913743e-05 2.042799999223161855e-02 -2.000999996545965807e-03 1.442999869037942234e-03 2.039700000960385090e-02 -1.782999921185192752e-03 3.229998838342430724e-04 1.870400000951926225e-02 -2.539999816075032887e-03 -8.120001699307794136e-04 2.219500001483152088e-02 4.289998137197906626e-04 3.952000052823456330e-03 2.040099999368442246e-02 -1.120500080806560543e-02 7.461999108460529162e-03 -4.415199994560363439e-02 -8.747999486409311493e-03 -7.319000668842344341e-03 -7.236999944401527503e-03 -7.906000696936921202e-03 6.833999369479802979e-03 -3.262399996318634393e-02 1.389899922138975244e-02 7.014001006281419572e-03 -4.495400008372658907e-02 -2.467999149049444896e-03 -1.450300023115639811e-02 -4.455099997189029132e-02 3.964999946450140783e-03 -8.619997216138656788e-04 -2.151200002102519535e-02 3.932999881137069949e-03 6.800027687494133554e-05 -2.060200002177751261e-02 7.599966091487029207e-05 3.198999988168655956e-03 -1.759900000361491398e-02 1.305000058405751109e-03 -2.230999921267060038e-03 -1.998700000497491761e-02 5.899997578257343625e-04 1.741000024625330347e-03 -2.001900000499575588e-02 -3.010000527324959937e-04 -7.780000429550039658e-04 -2.021299999756139693e-02 -3.610001717624930018e-04 7.429999517839892343e-04 -2.093699999874949758e-02 6.999784011435782365e-06 1.398999980590826149e-03 -1.996100000143606612e-02 -1.483000110814388208e-03 -2.000132240094276226e-06 -2.010299999181205596e-02 6.399993044545524258e-05 -5.420000151641694549e-04 -2.002699999981187931e-02 2.930000660182112632e-04 -2.300999997385352012e-03 -1.956699999931890352e-02
3.939982209361016664e-04 2.226200001253766589e-02 -1.728000002441181307e-02 -3.996999828575359577e-03 -2.010000298782082910e-03 3.516000024070604045e-03 -3.786999960008966080e-03 -5.630002868802573123e-04 -4.689999785339398581e-04 -3.576000178660407834e-03 2.254999728077843393e-03 -1.469999982513463211e-03 1.722500080533787697e-02 -1.197499871542536190e-02 -1.817700008311796261e-02 -2.139999931447854678e-02 -1.025800163482711198e-02 -1.635799987162861804e-02 -3.226500111990838332e-02 1.660499758438803083e-02 2.462600016151179211e-02 -3.094099896804020089e-02 -1.549000236532936323e-02 -2.528199981373755248e-02 -1.427999891418343546e-03 -1.544000109482336841e-03 -1.483999990575381222e-03 -6.599999758287159899e-04 -2.480000489360710807e-04 9.810000038908261305e-04 -1.182000089277231766e-03 1.162999910366300420e-03 -2.389999946372241659e-04 -1.049999949209088718e-04 -3.300000747370257433e-05 4.680000006125477644e-04 -2.910000214119302518e-04 2.509999775520884444e-04 -4.399999986444400914e-04 6.990000100075781765e-04 -1.439999472942697883e-04 -1.600000037145407866e-04 -2.620000567493031450e-04 6.969999794546915184e-04 -7.309999992500147356e-04 1.810000139708359170e-04 -2.779999875874872317e-04 -1.278000000721406281e-03 2.680007764977494094e-04 2.200016108557911987e-05 1.409749999984986901e-01 -9.103999672748426183e-03 -3.051000671074492309e-03 1.748300005330033491e-02 1.093200001139631866e-01 -6.999171243534508093e-05 1.968699939663931878e-02 -2.808000056000820033e-03 2.440999810904061033e-03 2.330000001306149759e-02 9.270003894263728573e-04 -3.687999909894223733e-03 2.001899999856695048e-02 -2.493999797798708822e-03 -1.157000167866196246e-03 2.077900001492221857e-02 -2.179000270604478443e-03 4.981999854417049241e-03 1.923700000705136359e-02 -2.159999511049554358e-03 -4.890000141805579681e-03 2.158000001680739077e-02 5.500015459351917423e-05 -4.729999743385104156e-04 2.152600000016887533e-02 1.387000076433351397e-03 4.790001252862433360e-04 2.040999999186550104e-02 1.048000122481057301e-03 -1.199999002175638509e-04 2.054499999433505655e-02 1.406000111450160430e-03 1.600012672321960089e-05 2.040999999222310388e-02 -1.999999996407392493e-03 1.439999869097590519e-03 2.038100000960132996e-02 -1.783999921338100736e-03 3.239998837446285830e-04 1.869000000952378282e-02 -2.537999816325650290e-03 -8.100001697974986087e-04 2.217700001481848204e-02 4.279998140852544824e-04 3.946000052731843920e-03 2.038499999369593543e-02 -1.120100080745726860e-02 7.455999108791019209e-03 -4.412399994561971850e-02 -8.742999486829975200e-03 -7.313000668458200307e-03 -7.230999944435119627e-03 -7.900000696583074980e-03 6.830999369956560104e-03 -3.260099996321646348e-02 1.388799922204776716e-02 7.008001005486445313e-03 -4.491700008365987623e-02 -2.466999149494410876e-03 -1.449500023105180016e-02 -4.452199997190380010e-02 3.951999946398237866e-03 -8.599997225790792163e-04 -2.149400002095543452e-02 3.928999881301018134e-03 6.700027658840234377e-05 -2.058600002175443866e-02 7.199966166730074272e-05 3.189999987879120306e-03 -1.758600000358384596e-02 1.303000058412918721e-03 -2.229999921403337613e-03 -1.997200000496487590e-02 5.889997581354229194e-04 1.738000024564683365e-03 -2.000400000498724420e-02 -3.020000526977291780e-04 -7.770000430106566896e-04 -2.019299999755687705e-02 -3.600001715599061153e-04 7.419999518825938197e-04 -2.091399999875401608e-02 4.999784180903588248e-06 1.397999980456546276e-03 -1.994400000142402749e-02 -1.482000110617321320e-03 -3.000132142488723822e-06 -2.008099999181657894e-02 6.499993045262281903e-05 -5.410000150735560414e-04 -2.001199999981839728e-02 2.930000656748268169e-04 -2.294999997365374574e-03 -1.954699999932489607e-02
3.939982218602243696e-04 2.225000001254066190e-02 -1.727700002439982660e-02 -3.997999828510769016e-03 -2.011000298859711051e-03 3.514000024077122870e-03 -3.786999960014485970e-03 -5.630002868812561878e-04 -4.699999785339398282e-04 -3.577000178817187938e-03 2.256999728001213550e-03 -1.470999982509941205e-03 1.721600080499284188e-02 -1.196999871610004117e-02 -1.817100008307328055e-02 -2.138599931504494775e-02 -1.025000163376129682e-02 -1.635099987171388658e-02 -3.223700111899142212e-02 1.659199758649369458e-02 2.461400016137022320e-02 -3.091799896882797827e-02 -1.547900236358187506e-02 -2.527399981387550010e-02 -1.429999891353752901e-03 -1.545000109635595023e-03 -1.485999990563342506e-03 -6.589999757475658183e-04 -2.490000488594419181e-04 9.820000038863049233e-04 -1.181000089212640939e-03 1.161999910439933011e-03 -2.409999946417451478e-04 -1.059999947751682039e-04 -3.500000755033169468e-05 4.670000006200653812e-04 -2.910000215687106565e-04 2.529999775510896175e-04 -4.409999986464378124e-04 7.000000099209082718e-04 -1.429999472206373119e-04 -1.620000037210595194e-04 -2.610000569171231971e-04 6.989999795273249810e-04 -7.339999992575323411e-04 1.800000138786461007e-04 -2.769999876661141452e-04 -1.281000000716885122e-03 2.670007765496524741e-04 2.000016099196908617e-05 1.409569999985062216e-01 -9.105999672862696154e-03 -3.050000671232744928e-03 1.747600005331037543e-02 1.093110001136441134e-01 -6.599171311901404745e-05 1.968399939668500492e-02 -2.812000055677866660e-03 2.435999810591550803e-03 2.329000001308857357e-02 9.270003891332438380e-04 -3.684999909906210274e-03 2.000699999856395475e-02 -2.493999797907458637e-03 -1.156000167872189366e-03 2.077300001492122031e-02 -2.181000270632078158e-03 4.981999854260794891e-03 1.923200000706240184e-02 -2.163999511088193686e-03 -4.890000142115092513e-03 2.157300001682947027e-02 5.500015456040004369e-05 -4.729999743445036683e-04 2.152000000016887626e-02 1.386000076330121990e-03 4.800001252056187257e-04 2.040499999187002020e-02 1.048000122453458067e-03 -1.199999002225582417e-04 2.053999999433505502e-02 1.405000111476112194e-03 1.500012663859945711e-05 2.040099999222961744e-02 -1.997999996370401418e-03 1.438999869241858881e-03 2.037400000959128932e-02 -1.784999921149848894e-03 3.209998836620062330e-04 1.868300000953230372e-02 -2.539999816353250006e-03 -8.100001699537535006e-04 2.217200001482952376e-02 4.249998141167259254e-04 3.945000052496962228e-03 2.037699999371349324e-02 -1.120300080749978000e-02 7.456999108645750995e-03 -4.411799994560967886e-02 -8.742999487040305218e-03 -7.310000668455203174e-03 -7.227999944438116831e-03 -7.901000696361702713e-03 6.827999369879930031e-03 -3.260199996320795046e-02 1.388799922196109864e-02 7.009001005484446177e-03 -4.491900008366087743e-02 -2.466999149509322559e-03 -1.449400023104081316e-02 -4.451099997190480217e-02 3.931999946134355148e-03 -8.559997240846923530e-04 -2.148700002084903346e-02 3.922999881317577875e-03 6.700027613761741301e-05 -2.058300002172131979e-02 6.699966230381423590e-05 3.180999987492977472e-03 -1.759400000354725477e-02 1.301000058429478343e-03 -2.229999921551601393e-03 -1.996900000495383659e-02 5.879997581464626753e-04 1.738000024491050859e-03 -2.000200000498172231e-02 -3.020000526922093421e-04 -7.770000430096578141e-04 -2.019199999755687952e-02 -3.590001714787559436e-04 7.409999519592229281e-04 -2.091299999875853924e-02 3.999784343203816321e-06 1.395999980382913938e-03 -1.994200000141651066e-02 -1.482000110606281540e-03 -3.000132140490970358e-06 -2.007899999181657694e-02 6.499993029584244151e-05 -5.390000150745548682e-04 -2.001299999982039668e-02 2.930000651934459854e-04 -2.288999997370368914e-03 -1.955199999933088933e-02
3.929982247523815080e-04 2.221300001248201206e-02 -1.726000002435734704e-02 -3.990999828986628757e-03 -2.005000298334294606e-03 3.510000024032490507e-03 -3.782999960084596457e-03 -5.620002865777362589e-04 -4.689999785570181314e-04 -3.569000178584777732e-03 2.253999728607254845e-03 -1.469999982551103241e-03 1.718400080363314750e-02 -1.195099871850622587e-02 -1.815700008291562181e-02 -2.134599931603202091e-02 -1.023600163072310026e-02 -1.633799987194866493e-02 -3.218600111657454743e-02 1.655799759032286489e-02 2.458600016112267098e-02 -3.087199897056969872e-02 -1.545400236007591493e-02 -2.524699981415438194e-02 -1.425999891115822468e-03 -1.548000109331076207e-03 -1.483999990582425283e-03 -6.579999759854963460e-04 -2.460000487858094473e-04 9.800000038777884667e-04 -1.182000089282751656e-03 1.162999910365301436e-03 -2.399999946372241631e-04 -1.069999950721693671e-04 -3.100000762496309446e-05 4.680000006215896853e-04 -2.930000215631907066e-04 2.529999774008279243e-04 -4.399999986353981163e-04 7.010000099264281862e-04 -1.429999471440081792e-04 -1.610000037265793581e-04 -2.610000567603428467e-04 6.969999795283240247e-04 -7.329999992555346743e-04 1.820000141055368669e-04 -2.799999875148535952e-04 -1.281000000724928384e-03 2.670007763272105633e-04 1.900016093802973273e-05 1.409029999985072223e-01 -9.103999672862695888e-03 -3.050000671081484413e-03 1.747600005329933565e-02 1.092460001138599590e-01 -6.899171803697855287e-05 1.968199939704679338e-02 -2.816000055441583976e-03 2.431999810277043605e-03 2.327800001311464487e-02 9.260003891111643617e-04 -3.684999909985836250e-03 2.000299999856947411e-02 -2.492999798108397596e-03 -1.154000167805549265e-03 2.076400001491370342e-02 -2.186000270648637191e-03 4.981999853879646653e-03 1.922900000709000176e-02 -2.167999511283612551e-03 -4.888000142425604280e-03 2.156500001684955731e-02 5.300015452176105575e-05 -4.729999745027563653e-04 2.151300000017991598e-02 1.388000076210332660e-03 4.810001253488882067e-04 2.039699999185798016e-02 1.049000122204487651e-03 -1.169999001509234947e-04 2.053599999432654047e-02 1.402000111476112230e-03 1.500012641170868362e-05 2.040099999224617711e-02 -1.997999996398000869e-03 1.438999869236864395e-03 2.036900000959129126e-02 -1.785999921479969506e-03 3.249998835813815330e-04 1.867800000953382875e-02 -2.541999816461999219e-03 -8.090001701110073520e-04 2.216600001483956528e-02 4.209998142293474915e-04 3.943000052187449998e-03 2.036999999373757114e-02 -1.120400080710342097e-02 7.452999108587102066e-03 -4.410099994560016945e-02 -8.745999487256156391e-03 -7.307000668680096664e-03 -7.225999944424553630e-03 -7.903000696371094771e-03 6.828999369740656154e-03 -3.258999996319791176e-02 1.387899922213608681e-02 7.008001004821754788e-03 -4.490100008361020550e-02 -2.473999149491115396e-03 -1.449300023155324427e-02 -4.449399997186716249e-02 3.905999946032774530e-03 -8.539997260420892225e-04 -2.147800002070751613e-02 3.917999881507476523e-03 6.500027576645827406e-05 -2.057600002169172188e-02 5.999966373914142050e-05 3.160999986949582230e-03 -1.760800000348863859e-02 1.299000058613857932e-03 -2.231999921696868703e-03 -1.996300000494080282e-02 5.879997579637306990e-04 1.741000024499041827e-03 -1.999400000498471885e-02 -3.020000530482811764e-04 -7.720000430056622991e-04 -2.018799999756187152e-02 -3.620001712132262309e-04 7.379999517393243200e-04 -2.090599999873898537e-02 9.997843117324106398e-07 1.396999980164014086e-03 -1.993400000140094913e-02 -1.480000110648792624e-03 -2.000131983237196116e-06 -2.007299999182861686e-02 6.599993024229161987e-05 -5.380000149949290848e-04 -2.000899999982691524e-02 2.920000641992129449e-04 -2.275999997447996932e-03 -1.955399999933835412e-02
3.939982297472738901e-04 2.214900001258560819e-02 -1.723200002429893865e-02 -3.978999828938598743e-03 -2.006000297431725921e-03 3.505000023967251230e-03 -3.783999960289408018e-03 -5.590002866493710499e-04 -4.649999785544949331e-04 -3.566000178341327542e-03 2.250999728837142170e-03 -1.466999982564666212e-03 1.712900080086019947e-02 -1.191199872263392842e-02 -1.812500008265098550e-02 -2.128899931829211084e-02 -1.020400162638320993e-02 -1.630899987229526144e-02 -3.209800111373314196e-02 1.651699759693138481e-02 2.453900016067787557e-02 -3.078299897338902802e-02 -1.541300235329387883e-02 -2.519599981468660654e-02 -1.426999891547524584e-03 -1.542000109402711034e-03 -1.479999990582898765e-03 -6.609999759153859433e-04 -2.470000490136990646e-04 9.790000038953469881e-04 -1.179000088742299893e-03 1.155999910594190114e-03 -2.379999946467916024e-04 -1.009999950776892469e-04 -3.100000717218041955e-05 4.670000005884705914e-04 -2.920000210818099050e-04 2.469999774814526298e-04 -4.349999986349246863e-04 6.950000101588387023e-04 -1.459999475967908118e-04 -1.600000036904636108e-04 -2.580000564743813608e-04 6.929999797522181813e-04 -7.359999992680986989e-04 1.820000138416548246e-04 -2.759999875078614781e-04 -1.274000000728923825e-03 2.660007756018850861e-04 2.100016075851627280e-05 1.407989999985107543e-01 -9.099999672951013599e-03 -3.050000670794945391e-03 1.746000005327725743e-02 1.091620001133399298e-01 -6.299172440190672613e-05 1.966999939750446388e-02 -2.828000055897013365e-03 2.436999809355496274e-03 2.326400001317589089e-02 9.200003884454040172e-04 -3.676999910450605771e-03 1.999199999859460272e-02 -2.493999798644977190e-03 -1.148000167896162400e-03 2.074900001491323046e-02 -2.186000270670716752e-03 4.981999853875650718e-03 1.922500000709000123e-02 -2.170999511700403249e-03 -4.883000142659487709e-03 2.155800001686112091e-02 5.400015468793341311e-05 -4.759999744381137568e-04 2.150200000017739310e-02 1.383000076382024952e-03 4.780001249607482012e-04 2.038699999188857415e-02 1.045000122429730555e-03 -1.209999004674287962e-04 2.052199999435261324e-02 1.408000111793545088e-03 1.000012685450259926e-05 2.038999999221805318e-02 -1.992999996015977233e-03 1.432999869602030263e-03 2.035600000956968095e-02 -1.789999921291717411e-03 3.219998832718683570e-04 1.867100000955890238e-02 -2.548999816491246285e-03 -8.100001706593977025e-04 2.214700001487920206e-02 4.179998143734404894e-04 3.940000051945575371e-03 2.035499999375712729e-02 -1.120200080676448523e-02 7.450999108772324298e-03 -4.406699994560921152e-02 -8.747999487390859669e-03 -7.305000668828359744e-03 -7.222999944415511853e-03 -7.901000696277258109e-03 6.828999369908897443e-03 -3.257299996320894842e-02 1.386699922231824159e-02 7.008001003947154049e-03 -4.486800008354396158e-02 -2.481999150465492854e-03 -1.447800023212931879e-02 -4.446499997183798319e-02 3.860999945219048806e-03 -8.419997294284698418e-04 -2.146100002047110836e-02 3.912999881324745292e-03 6.800027539629799659e-05 -2.056800002166711897e-02 4.699966561169061714e-05 3.134999985949408347e-03 -1.762500000339091086e-02 1.292000058997529047e-03 -2.236999922225280883e-03 -1.996200000489716658e-02 5.829997582513399236e-04 1.738000024131878098e-03 -1.998300000495412468e-02 -2.980000531222636744e-04 -7.700000426891570734e-04 -2.017399999758594936e-02 -3.590001709697758785e-04 7.349999519692116453e-04 -2.090299999875254791e-02 2.999785042083422804e-06 1.387999980324264694e-03 -1.992500000140299751e-02 -1.485000110506924133e-03 -3.000132349401959283e-06 -2.006099999180001661e-02 6.699993024945918277e-05 -5.370000149043157797e-04 -1.999399999983343668e-02 2.910000632971697777e-04 -2.263999997522628347e-03 -1.955299999934482363e-02
4.009982363800804520e-04 2.206400001315198325e-02 -1.719500002425267127e-02 -3.972999830202232976e-03 -1.989000296973948787e-03 3.509000023917151212e-03 -3.781999958826481618e-03 -5.790002865071003585e-04 -4.739999785455570433e-04 -3.560000176417451624e-03 2.225999729296917334e-03 -1.460999982572813629e-03 1.707900079765003673e-02 -1.186699872638047847e-02 -1.809000008241994431e-02 -2.121799932106505429e-02 -1.016500162098149702e-02 -1.627699987272612780e-02 -3.199600111020495935e-02 1.646399760455876868e-02 2.445200016016779374e-02 -3.067099897756805221e-02 -1.535300234475836349e-02 -2.513099981536476291e-02 -1.409999892287267615e-03 -1.532000108113999899e-03 -1.476999990686725037e-03 -6.689999758894343493e-04 -2.480000496277310262e-04 9.700000039405047656e-04 -1.174000088109658588e-03 1.147999910977335909e-03 -2.329999946663998463e-04 -1.009999949004771608e-04 -3.400000718117030386e-05 4.580000005914672159e-04 -2.960000216443408184e-04 2.539999771729382471e-04 -4.409999986198374000e-04 6.960000090503363308e-04 -1.319999475301505000e-04 -1.690000037099677051e-04 -2.520000573101863813e-04 7.049999802189849639e-04 -7.229999993132043374e-04 1.860000132791238346e-04 -2.689999872113336943e-04 -1.280000000757995551e-03 2.660007750372121575e-04 2.000016064264655604e-05 1.406829999985117485e-01 -9.096999673670322362e-03 -3.041000670575046312e-03 1.745300005325170836e-02 1.090270001134509142e-01 -6.599173463296791455e-05 1.964899939825264299e-02 -2.830000055409535951e-03 2.427999809169275117e-03 2.322900001319591970e-02 9.290003880970764240e-04 -3.673999909791908752e-03 1.996999999854192839e-02 -2.493999798485972436e-03 -1.152000167922133476e-03 2.072300001491722207e-02 -2.196000269661571754e-03 4.967999853110359118e-03 1.921600000715918341e-02 -2.181999511915676954e-03 -4.883000143530376140e-03 2.151900001692183886e-02 5.700015414970631514e-05 -4.709999742401904687e-04 2.147300000015583965e-02 1.381000075465646819e-03 4.880001247805202161e-04 2.035799999188962761e-02 1.063000122367364431e-03 -1.219998991310560762e-04 2.049699999425425717e-02 1.399000110862254776e-03 2.100012615585046091e-05 2.037199999225674726e-02 -2.002999995980633569e-03 1.430999868824751366e-03 2.033500000962687806e-02 -1.783999921568287048e-03 3.249998837166599860e-04 1.866200000952279031e-02 -2.551999816232883907e-03 -8.140001708942795752e-04 2.213900001489975400e-02 4.199998149602752096e-04 3.931000052079854784e-03 2.033799999375507719e-02 -1.119900080589061701e-02 7.441999109034175275e-03 -4.403199994561678154e-02 -8.751999487903710379e-03 -7.298000669127884844e-03 -7.219999944400424564e-03 -7.898000694988248013e-03 6.813999370163756689e-03 -3.254499996321052330e-02 1.385299922336709691e-02 6.998001002941270712e-03 -4.481500008345669361e-02 -2.481999150617330164e-03 -1.447300023208836391e-02 -4.442399997184297983e-02 3.796999944491993417e-03 -8.309997342498277309e-04 -2.144200002012882494e-02 3.895999881418582902e-03 6.800027412756451948e-05 -2.055100002157328118e-02 3.999966806720244380e-05 3.100999985399019443e-03 -1.764600000331830940e-02 1.292000059345856534e-03 -2.239999922203305804e-03 -1.994000000489416780e-02 5.879997585074777126e-04 1.736000024529008078e-03 -1.996400000497972407e-02 -3.150000529859149851e-04 -7.710000439638837327e-04 -2.016299999749111144e-02 -3.610001708742906212e-04 7.359999518489162944e-04 -2.087199999874250755e-02 -2.153824511196551232e-10 1.394999980116352293e-03 -1.990600000139343406e-02 -1.471000111056767817e-03 4.999868719410394989e-06 -2.005099999188528562e-02 6.499992967201640456e-05 -5.290000150505819393e-04 -1.998899999983038550e-02 2.870000600655004080e-04 -2.221999997835137977e-03 -1.956299999936469622e-02
