1.082880624431529527e-03 1.278156635434209487e-05 1.257190440314624458e-01 -2.481698156837610562e-04 4.030594289714471679e-04 4.177984183706384344e-03 -1.120123370813189828e-03 1.367044204160515301e-03 3.055935008803237294e-03 -7.711277447783476419e-04 -4.729550481183838443e-04 3.127975307398125470e-03 1.165833374231902862e-03 3.700572017723757962e-04 4.099042230929495802e-03 2.159004193698128458e-04 2.903450975736522212e-05 2.446008382274902655e-03 -7.471485355091811572e-04 3.810524047017718741e-04 3.654964176398652759e-03 -4.421005918618356499e-04 -1.496463475963975237e-05 2.469982211754150579e-03 3.628560716867188949e-04 -2.052950732625844106e-03 3.495043885368406822e-03 1.788549219938529271e-05 -9.601461332686200678e-07 2.812000744539052636e-03 9.487409105891046615e-05 -5.195625081392490181e-05 3.091004602851167918e-03 -2.312793391519207191e-05 -3.795544953202170576e-05 3.140999599255567699e-03 3.587024302593597115e-05 2.604515644333986918e-05 3.187001094366159921e-03 2.187543574071317153e-05 5.304336682255301208e-05 3.060000141592689616e-03 1.518677581499300983e-04 -2.695408371114941479e-05 3.247006569350577299e-03 9.087059693070327453e-05 1.004498578000601060e-05 3.178003560865553211e-03 3.387399561346371462e-05 3.404385365135227589e-05 3.095000899587873038e-03 -3.412668407222279546e-05 -1.955866256554096953e-06 3.110998640954608201e-03 1.093887629947115289e-03 2.603827411478679802e-05 2.760044177423579860e-03 -6.413002088959785614e-05 1.456045716643837367e-03 3.220976748047683653e-03 -5.212378184850868730e-05 -1.494957269791648106e-03 3.011019075473104524e-03 1.775831085907066034e-03 -4.709427086586823728e-04 4.139078994110569065e-03 1.717917342546860680e-03 4.770275632892626580e-04 2.039063193733593217e-03 -1.290125350996378052e-03 -1.695535067911706147e-05 3.077947708262734634e-03 -8.071739151630345516e-04 1.095061482865208142e-03 4.291951609632315562e-03 -2.155130105997919970e-03 -5.953014586493609912e-06 3.194912328662357585e-03 -8.740809880404988704e-04 -1.032971399478151446e-03 1.968979053775406479e-03 -3.247902529959666856e-02 1.291938594182726573e-02 2.542649428203337322e-02 -2.233866057242774039e-03 -2.470449524196136363e-04 -3.294087465411721111e-03 -3.280662391548423706e-02 -1.328045703569986739e-02 -3.404914765733362686e-02 -9.971848847165959082e-03 -4.820449474902884792e-04 -3.721399231186308179e-03 -3.020864676673838765e-03 -1.656045200905112511e-03 -3.355099536196119031e-03 -2.992885544541254352e-03 1.645962943248244431e-03 -2.779145211522704960e-03 -3.698637832572352810e-04 1.097953162606099412e-03 -3.324030630809215146e-03 -7.128699914869317082e-04 -8.490449381834725036e-04 -3.209016994062581247e-03 -1.568763118479245928e-04 7.595707913601206559e-05 -3.036007467861387941e-03 -4.229574753828882830e-03 2.487855933640119831e-03 -1.039520751381255333e-02 -5.088182954720925458e-05 2.059589526610741683e-04 -2.898004994688705132e-03 4.270437123337911256e-03 2.479845138257355270e-03 -1.068686127288451249e-02 3.442425630203286164e-05 -4.903149077290244393e-03 -1.051292909214391474e-02 -1.216749302259911370e-03 -7.030865240201987715e-04 -6.170039584572469850e-03 1.161253571300927684e-03 -6.710893784339591215e-04 -6.239943204011872899e-03 -1.348795703918897744e-04 -8.104184638383298651e-05 -2.959004346165377934e-03 1.521171074498455780e-04 -1.630409368718341648e-04 -2.878991496778871527e-03 8.254982005854568576e-06 1.335911580869461645e-03 -6.236018609928208056e-03 -5.586933769802323484e-05 8.995457564898186439e-05 -3.207003553385152743e-03 -4.186961651190833952e-05 4.595464975824355489e-05 -3.201002359477221962e-03 -8.710496360303315725e-07 -1.604490029330617743e-05 -3.166999810932597751e-03 5.312986339129771178e-05 -4.604526866136761143e-05 -3.189997186652352400e-03 -2.086731740648404621e-05 -3.404618898874187095e-05 -3.259000370064354772e-03 -1.418719633497927436e-04 6.495555036807479452e-05 -3.143006700993755936e-03 -2.286912555184766332e-05 -3.045549425083369148e-06 -3.214000891058555777e-03 2.313048676595567851e-05 -3.004545784002636316e-05 -3.204998635108157173e-03 -1.186942551972871531e-05 -7.404547296411128916e-05 -3.207999436513564884e-03 -4.759798289099090459e-04 -4.500067728573276969e-04 -5.040130026630536839e-04 -2.540132666726467288e-04 5.820049767393888117e-04 3.369814051322038038e-04 5.631995456609738618e-03 1.839972205935672643e-04 1.152267310181070612e-04 -8.957555962164579638e-03 -8.428801713216447361e-03 1.349075475516360069e-02 2.242005670874422027e-03 1.599627380744992952e-05 -1.389089305667978052e-04 -8.663437791439836805e-03 8.274813298671157905e-03 -1.364747011376053580e-02 -1.259997784433069612e-03 -1.359998215454688716e-04 -5.704938004358830355e-05 9.489863831555854631e-04 7.600042049106131049e-04 3.490278686630447790e-04 9.100178917743344427e-04 -7.590071491690808612e-04 -4.539521826809745481e-04 -1.554020064257673542e-03 8.960084473613345044e-04 5.099240160472029871e-04 1.649981382605107119e-03 9.270054424156879119e-04 4.750540461760490774e-04 3.183025196988715187e-04 1.928894948549432151e-03 -7.392014392803482152e-03 -1.584697699422384955e-03 -1.055104298353420596e-03 -7.444049578088631977e-03 1.589805959007242449e-04 -1.013993645141685008e-03 4.570208504426568198e-04 1.785288728464837606e-03 -8.071021449806344570e-04 -7.105915865219913051e-03 3.097781091859588186e-05 -1.865992807586926931e-03 5.090277175798488436e-04 -9.960212379140109037e-04 6.460083507417710208e-04 5.339502827006824661e-04 8.089941764237629142e-04 3.640014931887189495e-04 1.500277823232115074e-04 7.299760213631534256e-05 5.800079350315534099e-05 6.000215025607451557e-05 -1.150059811916410665e-04 -4.599783999268170788e-05 1.459959691435197223e-04 6.699358720819255288e-05 2.700218762820303381e-05 1.580023453505346510e-04 4.799163181507579129e-05 -2.599713113314492294e-05 2.050023230321360609e-04 -1.600028910719181196e-04 -5.199888226969742348e-05 6.999422184244974573e-05 -1.800281753378513665e-05 4.200100653537215109e-05 6.999867149354238669e-05 6.099466162647898543e-05 4.700182370148429174e-05 1.320018174943281709e-04 -9.000377055839446129e-05 -8.299863934260057001e-05 9.099751179317383640e-05 -9.006177806614822694e-06 1.500216207034844221e-05 1.519994207045889971e-04 2.740119978794955044e-02 -1.513109514953258836e-02 -5.196669679387478681e-03 -9.569097959432489552e-04 3.731752302239547590e-05 2.234296052551906428e-02 -3.270102651125185445e-02 -1.983697056523816074e-02 2.689496314905424641e-04 1.414126603335557220e-03 3.482296430968998685e-02 -2.439436130706449258e-03 5.510464360884767673e-04 7.753317818089439529e-04 2.343201146836077983e-02 1.236134283627200346e-03 -9.746998179166434717e-04 2.124106417526661073e-02 -1.068985668744458273e-04 4.933130719583308935e-04 2.207598867343057644e-02 1.650882521189539444e-04 -6.336828592088092392e-04 2.237801572756076968e-02 -6.159060191995394682e-04 3.883160366949202011e-04 2.225696943501426564e-02 1.901562006170588542e-04 2.329364272093220297e-05 2.072200743233086617e-02 -1.618561014611353817e-04 6.929821420293681385e-05 2.102499244613248441e-02 -1.488441946065349340e-04 -6.570597841203580658e-05 2.072999488977584834e-02 1.011589556786174018e-04 1.612927908369794804e-04 2.065700185170418063e-02 -1.418456191081303571e-04 -1.687055160153782998e-04 2.076299663510076596e-02 -1.478487262992639881e-04 7.529563705942501851e-05 2.084399293132607744e-02 -5.185252049415017166e-05 1.429686625511696970e-05 2.093599770528583107e-02 -1.158564124530555927e-04 -6.770175091209836525e-05 2.102999626164058292e-02 6.615134864637386698e-05 -3.670458720164291379e-05 2.084000323350144318e-02 -6.218531365188572106e-04 -4.087025881498633842e-04 2.094298049158813471e-02 2.195153442474166716e-03 3.929303690211127467e-05 2.079008885072992571e-02 -6.998632449842597707e-04 4.623012299518012300e-04 2.120796496628342756e-02 -1.417859955628423228e-03 -1.769948381015195606e-05 2.111794253412245179e-02 1.701247453144130641e-04 -5.269541053125797119e-05 2.149300769470714745e-02 2.401727817432456886e-04 -7.071219513770288147e-05 2.031301080146339505e-02 1.721759637691460028e-04 -1.154713545386425394e-03 2.021402340123314503e-02 1.451260254943753886e-04 1.165304495498494701e-03 2.148498940817740108e-02 1.971483782921033888e-04 1.829635937717290673e-05 2.091400778808715638e-02 1.291949284058473146e-01 6.705757437484536352e-04 -2.278374860245550859e-02 -1.165204777562943439e-02 3.096776757229521577e-04 -2.337847889345258390e-02 -1.064421317994106164e-02 5.573440580422167259e-05 -1.932143424945412247e-02 -1.449021944408043295e-03 5.119662001963183606e-03 -2.392013161314707897e-02 -1.695243734933977748e-03 -6.241263682760284440e-03 -1.869198056176564135e-02 -9.551305207290463608e-04 1.126980526019286154e-04 -2.135004051137401326e-02 -2.085943337445840193e-03 5.814635321827958669e-03 -2.583716740409280552e-02 -9.821180797938901686e-04 -6.830630717769553128e-05 -2.165903904437456104e-02 -1.001330279232229498e-03 -5.009233758201581468e-03 -1.654296977049726433e-02 1.940168493637132942e-04 6.364582932507037330e-05 -2.496999302504052456e-02 -1.341614628457453646e-04 -1.230292183600728822e-03 -2.061598803950123390e-02 5.383389320545650875e-05 -1.336290742880239706e-03 -2.050397888124241494e-02 1.257832670697412499e-03 5.347092499382642781e-04 -2.043795637999447010e-02 -1.212156013937588971e-03 4.737072283400126657e-04 -2.071705609539379808e-02 1.950355450569501716e-06 -8.833091051790230254e-05 -2.333999868993913776e-02 1.091837631066745751e-03 7.847077210883658237e-04 -2.055496668398786031e-02 4.988657800595474077e-05 4.691282672036273461e-06 -2.177199805532789578e-02 -1.130156433601287687e-03 7.697073909492134405e-04 -2.070105695291686587e-02 2.028508116857585342e-04 3.970362515222028302e-05 -2.089299232207651388e-02 -8.145139587422804841e-06 -4.229764158465595226e-05 -2.099399975150560357e-02 -9.116215142682552509e-05 -3.029165027872293020e-05 -2.057600330185798201e-02 1.084438424585080162e-05 9.970602975089629658e-05 -2.073400099129354274e-02 -9.915017009034511294e-05 -1.829581228780020432e-05 -2.087000379748464932e-02 6.584883131615944902e-05 -4.529560121235531021e-05 -2.084599669576691142e-02 9.785146484845142054e-05 -1.029653365066394455e-05 -2.090999588886190488e-02 2.784686736945557058e-05 -5.294876750561042919e-06 -2.079699881031534317e-02 -8.215735183520184832e-05 1.470668386771765563e-05 -2.069300357326091591e-02
1.096886246246559860e-03 1.577959885633335380e-05 1.255810445591493407e-01 -2.361682338495412999e-04 3.950588666422806690e-04 4.138984785814959176e-03 -1.155122649562643003e-03 1.352043976366576385e-03 3.037933796256632717e-03 -7.681277048435692116e-04 -4.739550646450667770e-04 3.126975443739371790e-03 1.175834563747277760e-03 3.810567827852397909e-04 4.070042482209566825e-03 1.999002384775330028e-04 6.034578998803835161e-06 2.450008056826126317e-03 -7.311492128888354147e-04 4.000526331944391804e-04 3.671964558538961393e-03 -4.290997226306547565e-04 3.035057325892986660e-06 2.448982485944994035e-03 3.288550857954498680e-04 -2.063950365735777327e-03 3.519042656792556976e-03 1.588594561529862718e-05 6.039699476269016145e-06 2.801000563863232252e-03 6.087319522862981669e-05 -5.195591228055760827e-05 3.113003218321778662e-03 1.287188047293967024e-05 -1.495540683322516561e-05 3.146000739112999895e-03 4.287052884958373499e-05 2.704505171769842496e-05 3.180001365240861435e-03 1.874997230942892465e-06 6.504353843701538582e-05 3.070999157032280012e-03 1.648685553423126710e-04 3.045636728764311223e-06 3.228006673406400365e-03 7.887115606238741651e-05 -3.955203311763843823e-06 3.164003270717042834e-03 3.187323051348934372e-05 -6.955889578205605247e-06 3.113001399417739991e-03 -1.912575769179886712e-05 -1.495620408947924104e-05 3.087999436099680799e-03 1.068885249353366401e-03 2.039116004241240192e-06 2.818043499614708656e-03 -4.913224487676973699e-05 1.476046484675623809e-03 3.275977075254053218e-03 -4.012509119392975365e-05 -1.502956825497343829e-03 3.043019677515678648e-03 1.761828031072103012e-03 -4.719416343619831089e-04 4.214078438126695955e-03 1.745915193721998739e-03 4.890282927873147592e-04 2.092064163734994563e-03 -1.294127327508457588e-03 7.045347162420884632e-06 3.126947205067456652e-03 -8.521757217305682593e-04 1.076062141924946647e-03 4.335950046530618641e-03 -2.148131652612073061e-03 -4.952481311343709967e-06 3.232912599495227444e-03 -8.540815158608601292e-04 -1.030971230826936225e-03 1.981979839824816927e-03 -3.246902487750866206e-02 1.293838579221743418e-02 2.541649441987367530e-02 -2.270865794081282450e-03 -2.230450085179475268e-04 -3.300089312343957963e-03 -3.278262213551580428e-02 -1.324345766414070438e-02 -3.409214720457047487e-02 -9.965847995951163454e-03 -4.870452499214640270e-04 -3.742398915952862681e-03 -3.034864572521897043e-03 -1.679045232474233760e-03 -3.358099780196686143e-03 -3.009884145914271114e-03 1.663962474512322180e-03 -2.813146158945310348e-03 -3.838626133112921657e-04 1.083952762413391323e-03 -3.353031002385483978e-03 -7.328687643851102386e-04 -8.940453620306691111e-04 -3.240017170451429864e-03 -1.258740088079455784e-04 5.295624673111420358e-05 -3.093005879373456231e-03 -4.238574175135330878e-03 2.446855728024288374e-03 -1.041020729899796993e-02 -2.988078100924169354e-05 1.929585675967860237e-04 -2.924003955215736909e-03 4.263437058332098829e-03 2.448845157919248266e-03 -1.068586111842073118e-02 8.425637697863705213e-06 -4.907149538976982375e-03 -1.054693009414338356e-02 -1.167748186382828145e-03 -6.820869451896023009e-04 -6.197037886958698186e-03 1.140253059186041628e-03 -6.490891776819178362e-04 -6.226944371072627368e-03 -1.638799744419433080e-04 -7.704168189939408393e-05 -2.949005583790410313e-03 1.801173071379363509e-04 -1.160410155116461083e-04 -2.882991022946204945e-03 1.325396319713379720e-05 1.334911931399465623e-03 -6.211018392169429317e-03 -7.186988742858364723e-05 6.395477249088116288e-05 -3.194003836309004633e-03 -3.187019131340342439e-05 3.995484041802194891e-05 -3.187001867215144384e-03 8.127558012209808852e-06 -2.604442529422111848e-05 -3.132999302698908934e-03 4.812896440267051270e-05 -5.004495283448559220e-05 -3.167997333566005200e-03 -4.386775434661915792e-05 -2.004601502549265108e-05 -3.248001505142844147e-03 -1.178725788837394319e-04 5.895574424370236566e-05 -3.128005638640692521e-03 -3.686989531832883613e-05 1.954730914470658319e-06 -3.195001532056951279e-03 3.712958462727592823e-05 -3.804515688966806524e-05 -3.182997951614585218e-03 -9.870213296689183186e-06 -4.004519097762392668e-05 -3.187999837134412526e-03 -4.889856801629126944e-04 -4.340047210774583097e-04 -3.600137590121958784e-04 -2.500159628707134159e-04 5.710059093430070072e-04 4.029817239096528808e-04 5.607994949198781900e-03 2.119974236939919834e-04 1.282253567282184026e-04 -8.916558265239293846e-03 -8.353800923014718244e-03 1.354875536133232083e-02 2.185999574548469233e-03 3.099844432302696986e-05 1.108857625964787896e-05 -8.554444750117422627e-03 8.228815623554427278e-03 -1.347746502316867628e-02 -1.244002298215974829e-03 -1.799982745114817224e-04 5.295189520936630046e-05 9.349839829633755338e-04 7.110050381896300745e-04 4.070279932276223448e-04 8.970156537060628354e-04 -7.570063592115875133e-04 -3.989527404586939237e-04 -1.535014116680070029e-03 8.990063625259819358e-04 3.639247473458051487e-04 1.619985231520452767e-03 9.020041190175335458e-04 3.800531790829141760e-04 3.253005290483647880e-04 1.882895623607273774e-03 -7.344013455625024618e-03 -1.536692617976502962e-03 -1.066106108160547617e-03 -7.569047467416180168e-03 1.509862287040303309e-04 -9.969955954151896779e-04 3.190202837821535294e-04 1.747288930533407976e-03 -8.091021861155558211e-04 -7.110917384252080260e-03 4.298367003314510843e-05 -1.819994844412255088e-03 3.660275541858753015e-04 -9.680183052531797895e-04 6.470073080165117179e-04 4.619514087736813495e-04 7.759948671382663676e-04 3.620012780052725898e-04 1.330264669064548069e-04 3.099764835202326838e-05 1.300079803793968361e-05 5.800107798154283616e-05 -6.500538609198063022e-05 -6.599809180740372097e-05 1.309982887552888669e-04 6.399481429591416960e-05 -1.799824952992824424e-05 1.270028612161548697e-04 2.699261305052090603e-05 -2.099745495781842706e-05 1.810013970277556670e-04 -1.310025825428860172e-04 -2.199900422417783527e-05 6.299497742073530485e-05 -2.100175643873617749e-05 4.500064026137874163e-05 4.399850682186819340e-05 5.399641576269922108e-05 5.100121953685351469e-05 8.900147577728921306e-05 -7.300157945788719196e-05 -4.099940408092354584e-05 3.799760863084590594e-05 -2.200415426602652915e-05 5.100147753369645934e-05 1.029983809795899629e-04 2.732119920705404492e-02 -1.493709483171213812e-02 -5.178675687558412753e-03 -1.013899912460471293e-03 7.431413662296843881e-05 2.210095768007826547e-02 -3.252302792166604506e-02 -1.966197016587289265e-02 3.069543986581097406e-04 1.489126044810287763e-03 3.457796437859012723e-02 -2.430429603098931916e-03 5.400559749106556822e-04 6.843284444713698634e-04 2.319601231082727907e-02 1.156141779437427214e-03 -1.022702378164254368e-03 2.105606159830314406e-02 -3.789228962874346263e-05 5.533108487228568595e-04 2.192299063264572731e-02 1.120941378789501068e-04 -6.576848734879210592e-04 2.223301390975677624e-02 -6.299012580089217214e-04 3.323143746826589802e-04 2.213896965898679708e-02 1.371600111563800678e-04 -5.070766266337098821e-05 2.062700632336856438e-02 -1.198518453971061758e-04 4.429669265110541441e-05 2.091999451094992551e-02 -1.348391405575255671e-04 -1.117077615937650694e-04 2.060499611216108293e-02 5.616045846915338624e-05 1.562923014938821201e-04 2.062000009018909175e-02 -1.008421406071367273e-04 -9.470673906049129748e-05 2.067899725557925325e-02 -1.528450692302695251e-04 1.172943791463843921e-04 2.075499213233848728e-02 -1.188498031123284170e-04 2.959688049814414838e-07 2.086899517553977845e-02 -5.385292850944628962e-05 -3.870300457338944270e-05 2.094499837525722746e-02 5.715624377394819782e-05 -2.570628149123002168e-05 2.072000271116993322e-02 -6.848455342066987403e-04 -4.247051900672254069e-04 2.075597815319256412e-02 2.183158765944132051e-03 2.529118900828392389e-05 2.065908856069017738e-02 -6.298566122468368146e-04 4.562988641620309969e-04 2.104496790196111120e-02 -1.416850400336172730e-03 -3.570281637324385885e-05 2.088294283026150000e-02 1.511301909776856765e-04 -1.469728130494514798e-05 2.136000638237960103e-02 2.741793213402260671e-04 -3.971449020995544574e-05 2.015301174661040043e-02 1.541846271365422954e-04 -1.167716551161596681e-03 2.000102285276675676e-02 1.741334209917351332e-04 1.145301892434866286e-03 2.130299087280653966e-02 1.951547573863025278e-04 5.229414920366095963e-05 2.075800722474651500e-02 1.285839197719938209e-01 7.205792420244765779e-04 -2.257077419198171703e-02 -1.154706359418322670e-02 3.376831086679293360e-04 -2.298947501510220648e-02 -1.068022623562937638e-02 7.573898506237865724e-05 -1.900043599925842902e-02 -1.405032112925918685e-03 5.082665497786127522e-03 -2.367112929708384966e-02 -1.665254824348091868e-03 -6.258259849888116004e-03 -1.841997909937097971e-02 -1.000141843485929504e-03 5.702000919062717969e-06 -2.107404082704819256e-02 -2.002953763616870282e-03 5.812638886355091933e-03 -2.558116399614461522e-02 -1.009132537995439689e-03 -1.930123874658977264e-05 -2.130304083887888528e-02 -1.049338772609363993e-03 -4.987230757460752589e-03 -1.633397203720320101e-02 1.500045696787509996e-04 -1.734988287632408056e-05 -2.466999366863801418e-02 -1.331707111786982619e-04 -1.236288966023572650e-03 -2.038898791392482202e-02 9.682334803937632192e-05 -1.334287104500276894e-03 -2.024497715884210694e-02 1.167822913441925398e-03 5.547127230767893730e-04 -2.019796032864944191e-02 -1.154166598244822043e-03 5.297108833251800049e-04 -2.045605452778181260e-02 3.393796615217254504e-05 2.673402822428006982e-06 -2.303399867733283216e-02 1.010825984948702811e-03 7.327118251879752818e-04 -2.026996924539803402e-02 7.387688720969990796e-05 5.694638195324164837e-06 -2.153399709242647883e-02 -1.079169599012086726e-03 7.537119304459248504e-04 -2.037805464960950469e-02 1.628470379765814958e-04 4.704960832768339416e-06 -2.080099345477436079e-02 -1.614722653008351624e-05 -5.529691225181264467e-05 -2.094299989300889980e-02 -3.716407475397550314e-05 -4.229102620292353741e-05 -2.052900093284254837e-02 5.840467213621838857e-06 8.970739473524004602e-05 -2.063800105320940520e-02 -8.715251467040187263e-05 3.705000626159138053e-06 -2.081200362079915073e-02 7.484589864962184493e-05 5.705426714599420403e-06 -2.077299705241305097e-02 6.184950244225439770e-05 -2.029582492761678402e-05 -2.086199721307952989e-02 3.284376631287981427e-05 -1.329380315228772448e-05 -2.072099849335963181e-02 -4.416022972561059516e-05 3.170766073562072360e-05 -2.062200226695655447e-02