-2.305265787846379633e-03 -1.632899501868950443e-01 3.387221222288044464e-03 -3.273731929153522735e-02 1.246748837996820500e-02 3.263749017769954075e-02 -3.255491425553234258e-02 -1.380035628705948876e-02 -2.692913002986088017e-02 -3.161158724830253394e-03 3.329058647140476380e-03 3.961824079931969105e-03 2.035846910065348611e-03 5.277053145755741109e-03 3.861008088005877300e-03 -1.231252549510636492e-04 -2.049563494834506501e-04 3.071997894921097219e-03 -6.642113213682296520e-03 2.475045295216246784e-03 2.827694439513397419e-03 -9.957125997817034557e-03 -2.799484084691711630e-04 3.088598509387673226e-03 5.988678318573017892e-04 5.836047139433796563e-03 3.357941647240632755e-03 -3.412593542563285024e-05 1.804387854111313578e-05 3.092998357416071580e-03 6.875361338654215639e-06 1.004339274962561103e-05 3.061000140422822161e-03 -8.812748909131621245e-05 -9.395556876517047694e-05 3.128997746366153892e-03 2.487408954982149627e-05 -5.395619600399236367e-05 3.091001780747116602e-03 -3.112528313608870276e-05 -3.295636482525512366e-05 3.075999202660365320e-03 -1.912656889936119594e-05 1.450441219836842916e-04 3.110997167636145311e-03 -8.712375607063251948e-05 -5.895685973107309233e-05 3.037997290949877218e-03 3.787459388557049239e-05 1.804363785405018735e-05 3.080001289329436891e-03 -7.812894246271219641e-05 2.604496214899438110e-05 3.166996452207724872e-03 -2.212413196502284308e-05 3.304324532065111076e-05 3.048998633440735441e-03 2.286827900853446524e-05 -3.795416701487610049e-05 3.234001472328266145e-03 -2.012083282004855083e-05 -1.795791881941960087e-05 2.966999438024601511e-03 4.387428451895460037e-05 -6.495628176878720961e-05 3.086002710403333831e-03 -4.712348278654943594e-05 -2.195697612142153706e-05 3.031998395212251538e-03 5.875452159064165819e-06 -2.995664899673186347e-05 3.058000666815298679e-03 -2.512369581187814008e-05 -3.395692245715041074e-05 3.036999461199489918e-03 -1.247137536881566631e-07 1.740434691030424356e-04 3.065997530219008015e-03 -1.212274748973777226e-05 -1.895725872690596627e-05 3.013999777925482990e-03 -8.268875012786411002e-04 -6.930387099522450920e-04 -2.776023848373225262e-03 1.133116318960827569e-03 7.895863525162922516e-05 -2.854954980664995215e-03 -5.608431051475300027e-04 2.559458830784780621e-04 -3.848026470327829251e-03 -4.438958458844712235e-04 3.896409502361783476e-05 -2.557018630613687882e-03 -4.148778818585688267e-04 1.449958202567204002e-03 -2.971037454148403936e-03 4.912567885990442885e-05 -1.021044074496281354e-03 -3.105983526294462532e-03 1.751099409376471138e-04 6.169617529995357350e-04 -2.688001619032353347e-03 2.601472470254853685e-04 -2.070515271773474099e-04 -3.619986474416525546e-03 1.791259132903682215e-04 -2.020440345903925269e-04 -3.095989844181392704e-03 -2.928777284835415266e-03 5.849249109296736100e-04 -5.458127560290800852e-03 1.061132315967137224e-03 -8.504692276307830839e-05 -3.250955587044946325e-03 2.849230735655299170e-03 -2.373083214083937433e-03 -5.711850337152594992e-03 -2.134073979779230624e-03 4.064028537426311698e-03 1.894855481511397354e-03 -1.307946328707274225e-03 1.922982862209251208e-03 -1.281080525521592368e-03 -3.838516404405248805e-04 -1.910514057299107934e-04 -3.647012925463761438e-03 1.745166190687089201e-03 4.289408874679454279e-04 -4.072935020589074466e-03 1.766079130606229433e-03 -5.570290861271991320e-04 -1.953920188146241691e-03 -1.290819178760294235e-03 1.289380897792106410e-04 -4.438054395424721049e-03 6.512782736432565266e-05 5.955445004999846972e-06 -3.138997435293248636e-03 9.127879101640894551e-06 1.995547467357785659e-05 -3.139999914148670478e-03 2.912690883705400718e-05 2.895579927983615054e-05 -3.115999227353829278e-03 4.112496125396072178e-05 -1.404354375540075489e-05 -3.068998129103478207e-03 6.712570674469232911e-05 1.956180684769669012e-06 -3.086997297188831882e-03 2.129052176072155589e-06 9.955068999493529332e-06 -3.169000057390034941e-03 1.712811404214523340e-05 5.995539751659933358e-05 -3.145000155487751806e-03 3.712357128868483950e-05 3.095695559488506122e-05 -3.033998930018774222e-03 1.721246682886756535e-04 2.795646709023164378e-05 -3.060993390145484196e-03 8.001682226706966058e-05 -1.500059605874418491e-04 -4.159946152806776325e-04 1.329943914337596673e-04 1.180018807409663478e-04 1.400037427669655900e-04 1.299944462114480017e-04 3.200184056523852155e-05 1.370048398948592327e-04 1.370084392367472480e-04 -9.100307042053043256e-05 -2.089931308726354652e-04 3.690034445602717508e-04 8.299853430903596056e-05 -8.298615068314907188e-05 -7.899463969647346859e-05 -7.100182378292936981e-05 -1.330022102023954592e-04 3.499513151734114552e-05 7.500168810081262578e-05 1.210003617850476397e-04 -1.039932935372976235e-04 -6.800227207557489638e-05 -1.660032707262870265e-04 -6.200665536776399324e-05 1.850024162189372202e-04 1.669948522657464004e-04 -1.023455226911369059e-02 -7.406801720056856338e-03 1.341968826502846351e-02 -7.319427116142679553e-03 9.323808815192095520e-03 -1.388943025718555012e-02 2.183218932602573950e-03 2.361792850522964962e-02 -4.922245952224097755e-03 5.914897571238145885e-03 1.308203459721869223e-02 2.767055387760478276e-03 5.676943749659118035e-03 -1.571985290709166077e-03 1.351253458460072165e-03 -6.640128109589844493e-03 1.407405364320241103e-02 3.416530072529110409e-03 -1.259048987561883206e-03 3.532019005414000802e-03 1.270898655406358432e-03 2.820036599927300703e-03 1.031985329564678519e-03 -8.788997978346322791e-04 -9.799950417992055879e-04 2.480999717929262705e-03 -7.407508139646613052e-05 -7.002924083921465668e-06 -4.199898789132203679e-05 7.100031035410632409e-05 -2.099763974100891204e-05 -2.000805869010169032e-06 -5.800082672842980818e-05 -9.900171954608907637e-05 9.200070133034076673e-05 4.399466424059813891e-05 1.800151292473911610e-05 7.999461326834262997e-06 -3.699938041239249375e-05 2.200242366779802194e-05 2.699914628143623048e-05 -5.899948688604274288e-05 -1.400142210847616512e-05 -4.799950698817251907e-05 3.400011040912444938e-05 5.200046039830579344e-05 -3.600021084571525742e-05 -1.199737210510193494e-05 -1.020047156971076518e-04 1.000172448886192484e-05 1.159957045877180209e-04 8.998560633830915119e-06 -6.999952499486624302e-05 3.400135889949640740e-05 -2.429611502786731617e-02 1.747541201543960365e-02 2.771776290473799628e-02 1.293741818873860583e-01 -7.858167091621099483e-04 2.007827938517547234e-02 1.868720104560388272e-03 1.730944887754416045e-02 3.176383071555596849e-02 -1.111082226012255350e-03 4.114404071954370912e-02 2.810371426621213926e-03 1.713692638596927133e-04 6.638221279285662010e-03 1.561691287747495917e-02 -3.166016112837790122e-03 -4.323644919610574074e-03 2.486993240003633476e-02 -2.505962140958618509e-03 -4.145664179451452255e-03 2.354795675338510266e-02 -5.497368286272895019e-04 7.398258989573126138e-03 1.823687274020551960e-02 -1.023920911586976906e-03 3.936322508962860484e-03 2.269090251779878192e-02 3.216157514039337875e-05 7.429190913799086650e-05 2.059100027549223139e-02 1.091465921331445204e-04 2.529705210312493060e-05 2.095800410536701255e-02 -2.085623627777662554e-05 5.329814633547790502e-05 2.102799841461391872e-02 8.713378854402970876e-05 -4.869849301355090311e-05 2.127100425837182354e-02 -1.784119001731522761e-05 -1.287071443128333435e-04 2.065500111747616344e-02 5.149271150553209646e-06 -3.770381637121307023e-05 2.089100076365987824e-02 -3.849794588401071190e-06 1.129587875931458407e-05 2.086899970248225905e-02 -5.685758943852043491e-05 4.129864239179624122e-05 2.106099711876576255e-02 8.912917303308950457e-05 3.730313585825376321e-05 2.138600312041896018e-02 -1.685547904017723318e-05 3.229787382749842341e-05 2.100899887524801737e-02 1.371369913695791711e-04 -1.469963803482462252e-05 2.119300581244292631e-02 -3.862725059723637866e-06 -6.869964104928571742e-05 2.118500083640958292e-02 8.313822951959163525e-05 5.829999308354303072e-05 2.116400257856719189e-02 1.513955610011320369e-05 -1.570043571030066938e-05 2.113000085873541906e-02 -8.485731298872550398e-05 3.029856507222999172e-05 2.105399613454383631e-02 -2.185290030236023386e-05 4.929698453965752024e-05 2.094599843068034942e-02 -1.486384481124725392e-05 6.130079288442739774e-05 2.121499854534308546e-02 5.813802909540186027e-05 1.143000977195736710e-04 2.117000076658558452e-02 -1.121135457031867313e-03 -1.146300442047637914e-03 -2.125302942132126574e-02 -3.129048921982603270e-03 2.181671909436899096e-03 -2.331415837047122463e-02 -2.037278253987504645e-03 -2.588250400127719859e-03 -1.777404628052004290e-02 -1.243104177440836414e-03 -3.073110083088005325e-04 -2.200504628370959087e-02 1.264909677134212675e-03 9.546825476262814445e-04 -2.232096204785873408e-02 -5.961348419374325408e-04 5.226993877336473309e-04 -2.123603170557746000e-02 1.239815992831236075e-03 1.440715317859480021e-03 -2.001096995842042980e-02 1.538868281210322700e-03 -3.223036024129286438e-04 -2.132893278626374345e-02 4.329012253371710361e-04 -2.183141779105227370e-04 -2.213597929726229124e-02 2.231863776727611645e-03 -1.029302769711840657e-03 -2.123189454312532018e-02 8.257956605227364860e-04 -1.070277963541264908e-03 -1.955995121690797672e-02 -2.179213720350645176e-03 -1.572720946366071933e-04 -1.931208652759416541e-02 -8.231254364183907555e-04 -3.103039363577039930e-04 -2.148302913890407992e-02 1.190925989640825682e-03 -2.652324057632196499e-03 -2.279091392157197790e-02 1.608680258565872896e-04 2.052698213561706016e-03 -2.127702257183315682e-02 7.478803547902247890e-04 1.261693245483778850e-03 -2.159498745378703524e-02 -1.457132750765009711e-03 1.319699551412357747e-03 -2.127207806587428848e-02 -2.860686329182249364e-04 1.194676276153172796e-03 -2.284902860807122224e-02 -6.414698919241231347e-05 -1.229694556130886331e-05 -2.094800245724893345e-02 -4.214938938949932206e-05 -9.296126297600297990e-06 -2.088900160397834729e-02 -2.614936905484037492e-05 -3.529615300071305340e-05 -2.089000058382194797e-02 -1.011466438306485543e-04 -3.929704418788745283e-05 -2.095700358111244471e-02 -1.121442984678477158e-04 -6.029785788494376335e-05 -2.101500373125485613e-02 5.985328005417110139e-05 -8.429715606793667347e-05 -2.095599638705698819e-02 -8.514750997656933215e-05 -1.052967731532651271e-04 -2.093700199386503216e-02 2.285258467130344144e-05 -1.402969002467076515e-04 -2.093999709978859938e-02 -1.591488340386329860e-04 7.570379517083662311e-05 -2.090100757341666407e-02
-2.278264931139004773e-03 -1.632359504915972814e-01 3.367221556170389360e-03 -3.275831840898008052e-02 1.245048808450133736e-02 3.261548956360409840e-02 -3.260191280913245920e-02 -1.382535676065678280e-02 -2.696513158926332893e-02 -3.164159008306498006e-03 3.331058748733831034e-03 3.968823929407382448e-03 2.047847240523557009e-03 5.283053022936821073e-03 3.853008491596946958e-03 -1.341259213632766832e-04 -2.239561140238517027e-04 3.087997716354367195e-03 -6.640113585631548035e-03 2.520045435423671348e-03 2.837693882946447799e-03 -9.975125604673047361e-03 -2.459485219788262213e-04 3.079597294376761572e-03 5.828666235661210740e-04 5.853047577293881212e-03 3.387940754657147845e-03 -3.912584222620352204e-05 3.304385409899101737e-05 3.090997941147223364e-03 -2.012568641076345865e-05 2.404378251178990636e-05 3.086998842446984220e-03 -5.612783131463900733e-05 -6.295546622401436063e-05 3.137998609914356349e-03 2.787441296333292715e-05 -5.695631177504130525e-05 3.083001945450396936e-03 -4.212543582387000865e-05 -1.995629950242650474e-05 3.079998570416359136e-03 -1.212557044852256930e-05 1.720437762329005539e-04 3.086997069904800009e-03 -1.031231624833786755e-04 -8.095705986784718848e-05 3.022996951340999917e-03 4.187398931325929516e-05 -2.595616678436364689e-05 3.094002076021419405e-03 -6.612794325742839513e-05 2.044598310575906054e-06 3.141997281147501219e-03 -4.612690879797288264e-05 2.304422820365166594e-05 3.116997797854730457e-03 3.886580756119916076e-05 -2.195331469891041907e-05 3.295001896960963496e-03 -1.312254623542877680e-05 -2.195732883258418868e-05 3.008999779742570040e-03 3.387148027430221569e-05 -5.795529567165128259e-05 3.155002203886335833e-03 -3.012558774715403691e-05 -5.956252188610282829e-06 3.083998860574165869e-03 3.873348781365141997e-06 -1.195591018719527154e-05 3.110000330125514949e-03 -5.012575063890739450e-05 -5.795619399005887855e-05 3.086998783398054846e-03 8.873611199392366535e-06 1.670440433463926189e-04 3.106997995912898821e-03 -3.123809373336618589e-06 -2.295689715078867872e-05 3.040000201100027423e-03 -8.278869969562616940e-04 -6.730388793048094551e-04 -2.788024172638191127e-03 1.104117028477776940e-03 1.009584169337787393e-04 -2.871956473464670843e-03 -5.348407981605551951e-04 2.899450687606100561e-04 -3.904025893577600572e-03 -4.288946759625807538e-04 2.496367212402132368e-05 -2.586017821285274514e-03 -4.268772060493790962e-04 1.428957970942753728e-03 -2.988037645049781629e-03 4.412751600329287551e-05 -1.015044708582696744e-03 -3.150983814923467245e-03 1.571114820759088489e-04 6.089612283380490838e-04 -2.726002238550241132e-03 2.471493363113025929e-04 -2.430522542401270826e-04 -3.671986493339766087e-03 2.101284301210026894e-04 -2.120449378855777587e-04 -3.157988439999738928e-03 -2.937776667771743733e-03 5.409246911363489166e-04 -5.474127302941994046e-03 1.078133197707194799e-03 -1.030472479836963263e-04 -3.272954639570283680e-03 2.847230656541016938e-03 -2.422083198335210023e-03 -5.710849723884817153e-03 -2.152073567070886349e-03 4.071028409741584385e-03 1.884854649301029002e-03 -1.265945981035331404e-03 1.950982715898227178e-03 -1.289079212215785792e-03 -4.158522332043940303e-04 -1.680511680094220019e-04 -3.632014554633500401e-03 1.719165755316589151e-03 4.449410637799814262e-04 -4.061936306185644045e-03 1.801078675620780252e-03 -5.140289434028552174e-04 -1.941919372571436660e-03 -1.293820562482792978e-03 1.299385741731406345e-04 -4.404054531796644176e-03 5.112745148549531157e-05 -6.044416431685962949e-06 -3.129997835260369364e-03 2.012738260670249058e-05 9.955636195172615287e-06 -3.127999324452828550e-03 3.312568485781560541e-05 2.595622148201485736e-05 -3.085999021965022977e-03 3.812378505352952249e-05 -8.043130250951621563e-06 -3.039998336359570758e-03 4.512507246811565454e-05 2.395642475319305933e-05 -3.070998504973226125e-03 2.412819623661162637e-05 8.955349507381537265e-06 -3.147999147373068893e-03 1.812737636475470772e-05 5.395565193452458134e-05 -3.127000029717053042e-03 4.312254072553236813e-05 1.495730534340519381e-05 -3.008998458872692155e-03 1.661240676675072555e-04 4.095668445382847256e-05 -3.045993818795460131e-03 7.001064211056376462e-05 -1.380037977337948067e-04 -2.639951927636493851e-04 1.389915824743959843e-04 1.190028543107686765e-04 2.090039728501665592e-04 1.449909269931306459e-04 6.200306228546844528e-05 2.240050252938468993e-04 1.210018534439646172e-04 -7.700076109115445663e-05 -4.699398104553678842e-05 3.329980717899690829e-04 8.600043396558309009e-05 4.901234071021333589e-05 -3.699896005821689962e-05 -7.600035382195536769e-05 -2.700042913636865129e-05 3.999115495021448772e-05 4.100305943540967171e-05 2.180010473430900623e-04 -1.129954368714386812e-04 -1.010015277799238269e-04 -1.140031693960917846e-04 -6.500926071546302653e-05 1.860033259467281188e-04 2.309947158659352874e-04 -1.017753999884239181e-02 -7.337806018033200470e-03 1.311968960813017678e-02 -7.276425755201968229e-03 9.241808285308690529e-03 -1.392442734357981181e-02 2.188221800195918817e-03 2.343192745217656178e-02 -4.996243111487046196e-03 5.888908700511264437e-03 1.294203070451918451e-02 2.491056314161803949e-03 5.613951214945843080e-03 -1.554987835918673119e-03 1.168250652194589368e-03 -6.591121042276475855e-03 1.394705110955641800e-02 3.240533868590384815e-03 -1.240042386100119118e-03 3.538016693733620193e-03 1.108899344186543845e-03 2.813039822364481451e-03 1.038984214999112438e-03 -9.579001820514960845e-04 -9.949927246167512493e-04 2.475998921540373612e-03 -1.310756212674284540e-04 -2.700267898370122335e-05 -9.299907147082507575e-05 6.400021900952799873e-05 1.300269929327953942e-05 -3.700096008750933621e-05 -6.699894598940410472e-05 -1.100002144580135532e-04 3.800017119251850327e-05 5.994981945787827283e-06 3.002228698664924198e-06 3.799923204623108659e-05 -5.400041654226008718e-05 4.500277997480791280e-05 6.599901484623009668e-05 -6.699910323180549598e-05 -2.100042913104034972e-05 -2.799984177630437273e-05 9.999541830207649333e-06 5.300184960747771019e-05 -3.000069367435862983e-05 -4.599741641922527413e-05 -9.100212913682617188e-05 3.700082267207441603e-05 5.299576977603138647e-05 -3.999061875196481411e-06 -5.000033713006351931e-05 -2.399945397292074667e-05 -2.403310558087554463e-02 1.742340850609053540e-02 2.748477435178213468e-02 1.286231888160617176e-01 -7.268185171853611126e-04 1.990924796748533981e-02 1.841727702899839713e-03 1.723644623326688746e-02 3.157583065124448807e-02 -1.029081767355866399e-03 4.079404040017298866e-02 2.792379727964951555e-03 1.493751808369916880e-04 6.446219184039423886e-03 1.546791470388533124e-02 -3.199009022707797936e-03 -4.369647374881251850e-03 2.469493170858804917e-02 -2.458956370316977159e-03 -4.004666186980041301e-03 2.340895666832967098e-02 -5.907338011717816646e-04 7.364257958344742894e-03 1.816187155276430265e-02 -1.008916845000431281e-03 3.929321079439087629e-03 2.259090322794885322e-02 -1.883335981163869924e-05 -9.709837322952777651e-06 2.046499938977808242e-02 1.521526250254085888e-04 -1.870509405278319195e-05 2.080900648032371625e-02 -1.584985410505197344e-05 -1.270409766451670624e-05 2.086999955409743826e-02 5.413731407084550960e-05 -1.869968646810334090e-05 2.118500248933077520e-02 1.816385938695041895e-05 -2.470890220221367848e-05 2.053300110905281403e-02 -8.846078801357703248e-06 2.429459249360676026e-05 2.077799931465167463e-02 -5.084488221567414037e-05 -7.705799951189619670e-06 2.074799805809224296e-02 -4.851753864351822128e-06 5.729657424964621550e-05 2.091799900953873748e-02 6.613657954360684880e-05 3.130057350901411850e-05 2.120400226907515409e-02 -7.084770288209441393e-05 3.029520815057809002e-05 2.081799670485513787e-02 1.581440806961911393e-04 -9.702121414641156296e-06 2.101900659685373290e-02 2.814526560125963991e-05 -5.670244495426364712e-05 2.098900196952585909e-02 7.014910356180387608e-05 6.029621779092945603e-05 2.089700202108880217e-02 5.147047200803642973e-06 3.429697757806884705e-05 2.094699974280885002e-02 -6.384821893807109865e-05 4.729538697923092050e-05 2.083099674886703181e-02 -1.484402083930441050e-05 2.938741264396472719e-07 2.072699941064029897e-02 1.014496808309560187e-05 3.129769673095402676e-05 2.099799998889898683e-02 4.714584045364607378e-05 1.052973841967289607e-04 2.097800044643457346e-02 -1.026148178442805835e-03 -1.115296078785449081e-03 -2.094002599264203901e-02 -3.109067387345479556e-03 2.157678316320695445e-03 -2.286115721620898475e-02 -2.092294321435075356e-03 -2.566244756835981116e-03 -1.737904883244483986e-02 -1.198116407834485305e-03 -3.253067902032040102e-04 -2.170504419635042870e-02 1.258896331623731314e-03 8.646871742946198036e-04 -2.199496101648817925e-02 -6.271477387143650599e-04 4.337038780210397898e-04 -2.092103170639571588e-02 1.285803385029131050e-03 1.512719691128756481e-03 -1.969996910634935067e-02 1.477851686772510033e-03 -2.452977559396220491e-04 -2.091993636230365244e-02 4.138884241462511128e-04 -1.853096970313830897e-04 -2.182098053911748006e-02 2.186851341995853584e-03 -1.100298424420065920e-03 -2.092789536922501012e-02 8.267853957359302649e-04 -1.074274391519426533e-03 -1.930795111971032527e-02 -2.139224815258067985e-03 -1.812682695936951598e-04 -1.904008455874664843e-02 -8.861371608087864832e-04 -2.542997896517316296e-04 -2.119403249854111271e-02 1.239912508701383450e-03 -2.551319374803334011e-03 -2.245791335851394024e-02 1.738552238805344131e-04 2.136702683557622270e-03 -2.096102323368797399e-02 6.728670257920153948e-04 1.192697926176734856e-03 -2.126898952988823602e-02 -1.411144499561569439e-03 1.292703598602321221e-03 -2.098407581018324475e-02 -2.540838531610294538e-04 1.154681539418998685e-03 -2.247602673824018391e-02 -1.121489860409086164e-04 -1.429621326531895848e-05 -2.089900438353981330e-02 -3.215084516157839937e-05 3.704376271760669528e-06 -2.085300138111422646e-02 1.884948680644886256e-05 -4.029579125676585090e-05 -2.086199868052085807e-02 -9.814958121863197793e-05 -4.629602573490408803e-05 -2.088500335977247838e-02 -1.011461849313796143e-04 -2.529720014504781143e-05 -2.096800377959090814e-02 6.585079296864138065e-05 -3.629628174744004129e-05 -2.089399682332216193e-02 -1.121480283800481599e-04 -1.432965818749937226e-04 -2.092500255458415448e-02 3.985096911937115080e-05 -1.752963606200947364e-04 -2.090099591134866180e-02 -1.391507126988758753e-04 6.870443169020587840e-05 -2.085500665979805879e-02