1.342540000000000067e+00 3.781140000000000168e+00 3.241540000000000088e+00 4.448300000000000032e-01 4.751470000000000304e+00 1.538689999999999891e+00 9.887599999999999723e-01 1.309730000000000061e+00 1.538710000000000022e+00 2.771889999999999965e+00 3.781149999999999789e+00 3.241550000000000153e+00 1.874190000000000023e+00 4.751470000000000304e+00 1.538669999999999982e+00 2.418099999999999916e+00 1.309719999999999995e+00 1.538720000000000088e+00 4.201220000000000176e+00 3.781140000000000168e+00 3.241560000000000219e+00 3.303529999999999855e+00 4.751479999999999926e+00 1.538689999999999891e+00 3.847430000000000128e+00 1.309730000000000061e+00 1.538720000000000088e+00 1.121639999999999970e+00 5.255399999999999849e+00 6.337769999999999904e+00 1.665550000000000086e+00 1.813639999999999919e+00 6.337790000000000035e+00 2.550980000000000025e+00 5.255399999999999849e+00 6.337760000000000282e+00 3.094899999999999984e+00 1.813639999999999919e+00 6.337780000000000413e+00 3.980319999999999858e+00 5.255399999999999849e+00 6.337769999999999904e+00 4.524230000000000196e+00 1.813649999999999984e+00 6.337790000000000035e+00 2.019330000000000069e+00 4.285059999999999647e+00 8.040630000000000166e+00 3.448679999999999968e+00 4.285059999999999647e+00 8.040620000000000545e+00 4.878020000000000245e+00 4.285059999999999647e+00 8.040620000000000545e+00 2.696120000000000072e+00 4.788969999999999949e+00 1.283971000000000018e+01 1.798419999999999908e+00 5.759330000000000283e+00 1.113683999999999941e+01 2.342350000000000154e+00 2.317559999999999842e+00 1.113686000000000043e+01 4.125460000000000349e+00 4.788979999999999571e+00 1.283970000000000056e+01 3.227780000000000094e+00 5.759319999999999773e+00 1.113682999999999979e+01 3.771679999999999922e+00 2.317569999999999908e+00 1.113686000000000043e+01 5.554820000000000313e+00 4.788979999999999571e+00 1.283970000000000056e+01 4.657119999999999926e+00 5.759319999999999773e+00 1.113682999999999979e+01 5.201019999999999754e+00 2.317559999999999842e+00 1.113686000000000043e+01 5.086660000000000181e+00 7.222909999999999719e+00 3.241550000000000153e+00 1.684059999999999890e+00 1.066468000000000060e+01 3.241550000000000153e+00 1.330279999999999907e+00 8.193279999999999674e+00 1.538699999999999957e+00 2.227980000000000071e+00 7.222909999999999719e+00 3.241560000000000219e+00 3.113410000000000011e+00 1.066466999999999921e+01 3.241550000000000153e+00 2.759630000000000027e+00 8.193270000000000053e+00 1.538710000000000022e+00 3.657319999999999904e+00 7.222909999999999719e+00 3.241560000000000219e+00 4.542760000000000353e+00 1.066469000000000023e+01 3.241560000000000219e+00 4.188970000000000304e+00 8.193260000000000431e+00 1.538720000000000088e+00 2.007070000000000132e+00 8.697179999999999467e+00 6.337790000000000035e+00 3.436420000000000030e+00 8.697179999999999467e+00 6.337790000000000035e+00 4.865770000000000373e+00 8.697190000000000865e+00 6.337790000000000035e+00 1.475419999999999954e+00 7.726849999999999774e+00 8.040630000000000166e+00 2.360869999999999802e+00 1.116859999999999964e+01 8.040630000000000166e+00 2.904760000000000009e+00 7.726840000000000153e+00 8.040630000000000166e+00 3.790210000000000079e+00 1.116859999999999964e+01 8.040630000000000166e+00 4.334120000000000417e+00 7.726840000000000153e+00 8.040639999999999787e+00 5.219560000000000421e+00 1.116859999999999964e+01 8.040620000000000545e+00 6.440240000000000187e+00 8.230750000000000455e+00 1.283971000000000018e+01 3.037669999999999870e+00 1.167251000000000083e+01 1.283971000000000018e+01 2.683870000000000200e+00 9.201109999999999900e+00 1.113687000000000005e+01 3.581570000000000142e+00 8.230750000000000455e+00 1.283971999999999980e+01 4.466999999999999638e+00 1.167252000000000045e+01 1.283970000000000056e+01 4.113220000000000098e+00 9.201100000000000279e+00 1.113686000000000043e+01 5.010919999999999597e+00 8.230750000000000455e+00 1.283970000000000056e+01 5.896349999999999980e+00 1.167252000000000045e+01 1.283971000000000018e+01 5.542570000000000441e+00 9.201109999999999900e+00 1.113687000000000005e+01 7.863799999999999679e-01 1.163500999999999941e+01 1.538680000000000048e+00 2.215710000000000068e+00 1.163502000000000081e+01 1.538689999999999891e+00 3.645059999999999967e+00 1.163502000000000081e+01 1.538680000000000048e+00 1.140160000000000062e+00 1.410645000000000060e+01 3.241550000000000153e+00 1.671820000000000084e+00 1.507681999999999967e+01 1.538720000000000088e+00 2.569519999999999804e+00 1.410646000000000022e+01 3.241550000000000153e+00 3.101160000000000139e+00 1.507681000000000004e+01 1.538710000000000022e+00 3.998850000000000016e+00 1.410646000000000022e+01 3.241550000000000153e+00 4.530499999999999972e+00 1.507680000000000042e+01 1.538720000000000088e+00 1.463170000000000082e+00 1.213894999999999946e+01 6.337749999999999773e+00 2.892520000000000202e+00 1.213893999999999984e+01 6.337769999999999904e+00 4.321850000000000414e+00 1.213893999999999984e+01 6.337760000000000282e+00 2.348609999999999864e+00 1.558071999999999946e+01 6.337799999999999656e+00 3.777950000000000141e+00 1.558073000000000086e+01 6.337780000000000413e+00 5.207300000000000040e+00 1.558073000000000086e+01 6.337799999999999656e+00 1.816969999999999974e+00 1.461036999999999964e+01 8.040630000000000166e+00 3.246309999999999807e+00 1.461037999999999926e+01 8.040639999999999787e+00 4.675650000000000084e+00 1.461036999999999964e+01 8.040630000000000166e+00 2.139949999999999797e+00 1.264284999999999926e+01 1.113682999999999979e+01 3.569310000000000205e+00 1.264284999999999926e+01 1.113683999999999941e+01 4.998649999999999594e+00 1.264286000000000065e+01 1.113683999999999941e+01 2.493749999999999911e+00 1.511430000000000007e+01 1.283970000000000056e+01 3.025409999999999933e+00 1.608464000000000027e+01 1.113686000000000043e+01 3.923099999999999810e+00 1.511429000000000045e+01 1.283971000000000018e+01 4.454749999999999766e+00 1.608464999999999989e+01 1.113687000000000005e+01 5.352430000000000021e+00 1.511429000000000045e+01 1.283970000000000056e+01 5.884089999999999598e+00 1.608464000000000027e+01 1.113686000000000043e+01 1.481700000000000017e+00 2.098998999999999882e+01 3.241550000000000153e+00 2.911049999999999915e+00 2.098999999999999844e+01 3.241550000000000153e+00 4.340379999999999683e+00 2.098999999999999844e+01 3.241550000000000153e+00 2.025599999999999845e+00 1.754821000000000097e+01 3.241550000000000153e+00 1.127909999999999968e+00 1.851856000000000080e+01 1.538680000000000048e+00 3.454959999999999809e+00 1.754821000000000097e+01 3.241540000000000088e+00 2.557259999999999867e+00 1.851856000000000080e+01 1.538680000000000048e+00 4.884290000000000020e+00 1.754822000000000060e+01 3.241540000000000088e+00 3.986600000000000144e+00 1.851855000000000118e+01 1.538689999999999891e+00 1.804710000000000036e+00 1.902248000000000161e+01 6.337769999999999904e+00 3.234039999999999804e+00 1.902248000000000161e+01 6.337760000000000282e+00 4.663389999999999702e+00 1.902248000000000161e+01 6.337760000000000282e+00 2.158490000000000020e+00 2.149391999999999925e+01 8.040630000000000166e+00 3.587839999999999918e+00 2.149390999999999963e+01 8.040639999999999787e+00 5.017190000000000261e+00 2.149390999999999963e+01 8.040620000000000545e+00 2.702399999999999913e+00 1.805214000000000141e+01 8.040630000000000166e+00 4.131750000000000256e+00 1.805212999999999823e+01 8.040630000000000166e+00 5.561099999999999710e+00 1.805211999999999861e+01 8.040630000000000166e+00 2.835290000000000088e+00 2.199783000000000044e+01 1.283970000000000056e+01 4.264619999999999855e+00 2.199782000000000082e+01 1.283971000000000018e+01 5.693970000000000198e+00 2.199782000000000082e+01 1.283971000000000018e+01 3.379199999999999982e+00 1.855605999999999867e+01 1.283971000000000018e+01 2.481500000000000039e+00 1.952638999999999925e+01 1.113683999999999941e+01 4.808539999999999814e+00 1.855605999999999867e+01 1.283971000000000018e+01 3.910839999999999872e+00 1.952638999999999925e+01 1.113683999999999941e+01 6.237870000000000026e+00 1.855605999999999867e+01 1.283970000000000056e+01 5.340169999999999639e+00 1.952639999999999887e+01 1.113683999999999941e+01 4.509400000000000075e-01 2.545440000000000147e+00 2.390120000000000022e+00 1.004000000000000004e+00 3.530130000000000212e+00 8.395500000000000185e-01 1.185699999999999948e-01 8.833000000000000573e-02 8.395399999999999530e-01 1.880300000000000082e+00 2.545430000000000081e+00 2.390099999999999891e+00 2.433339999999999836e+00 3.530149999999999899e+00 8.395599999999999730e-01 1.547919999999999963e+00 8.831999999999999573e-02 8.395500000000000185e-01 3.309639999999999915e+00 2.545450000000000212e+00 2.390109999999999957e+00 3.862690000000000179e+00 3.530149999999999899e+00 8.395599999999999730e-01 2.977269999999999861e+00 8.831999999999999573e-02 8.395500000000000185e-01 5.071419999999999817e+00 5.002469999999999750e+00 3.940799999999999859e+00 1.327309999999999990e+00 1.560729999999999951e+00 3.940850000000000186e+00 2.212740000000000151e+00 5.002469999999999750e+00 3.940789999999999793e+00 2.756639999999999979e+00 1.560729999999999951e+00 3.940830000000000055e+00 3.642079999999999984e+00 5.002469999999999750e+00 3.940789999999999793e+00 4.185990000000000322e+00 1.560729999999999951e+00 3.940850000000000186e+00 1.127750000000000030e+00 3.049350000000000005e+00 7.189180000000000348e+00 1.680809999999999915e+00 4.034060000000000201e+00 5.638630000000000031e+00 7.953700000000000214e-01 5.922399999999999887e-01 5.638609999999999900e+00 2.557090000000000085e+00 3.049360000000000070e+00 7.189180000000000348e+00 3.110149999999999970e+00 4.034069999999999823e+00 5.638639999999999652e+00 2.224699999999999900e+00 5.922399999999999887e-01 5.638630000000000031e+00 3.986429999999999918e+00 3.049360000000000070e+00 7.189189999999999969e+00 4.539480000000000182e+00 4.034060000000000201e+00 5.638630000000000031e+00 3.654059999999999864e+00 5.922500000000000542e-01 5.638620000000000410e+00 5.748210000000000264e+00 5.506389999999999674e+00 8.739879999999999427e+00 2.004090000000000149e+00 2.064639999999999809e+00 8.739919999999999689e+00 2.889540000000000219e+00 5.506400000000000183e+00 8.739879999999999427e+00 3.433440000000000047e+00 2.064649999999999874e+00 8.739929999999999310e+00 4.318880000000000052e+00 5.506389999999999674e+00 8.739869999999999806e+00 4.862779999999999880e+00 2.064649999999999874e+00 8.739929999999999310e+00 2.357590000000000074e+00 4.537980000000000125e+00 1.043769999999999953e+01 1.472169999999999979e+00 1.096170000000000089e+00 1.043770999999999916e+01 3.786929999999999907e+00 4.537980000000000125e+00 1.043769999999999953e+01 2.901489999999999903e+00 1.096160000000000023e+00 1.043769999999999953e+01 5.216289999999999871e+00 4.537980000000000125e+00 1.043769999999999953e+01 4.330840000000000245e+00 1.096149999999999958e+00 1.043770999999999916e+01 1.804540000000000033e+00 3.553269999999999929e+00 1.198826000000000036e+01 6.425010000000000332e+00 6.010320000000000107e+00 1.353894000000000020e+01 2.680890000000000217e+00 2.568569999999999798e+00 1.353899000000000008e+01 3.233870000000000022e+00 3.553279999999999994e+00 1.198826999999999998e+01 3.566320000000000157e+00 6.010309999999999597e+00 1.353894000000000020e+01 4.110240000000000116e+00 2.568569999999999798e+00 1.353899000000000008e+01 4.663219999999999921e+00 3.553290000000000060e+00 1.198826999999999998e+01 4.995669999999999611e+00 6.010299999999999976e+00 1.353895999999999944e+01 5.539570000000000327e+00 2.568569999999999798e+00 1.353899000000000008e+01 1.336400000000000032e+00 5.987210000000000143e+00 2.390159999999999840e+00 2.765750000000000153e+00 5.987210000000000143e+00 2.390159999999999840e+00 4.195090000000000430e+00 5.987210000000000143e+00 2.390159999999999840e+00 7.924900000000000277e-01 9.428969999999999629e+00 2.390109999999999957e+00 4.601000000000000090e-01 6.971860000000000390e+00 8.395399999999999530e-01 2.221830000000000194e+00 9.428979999999999251e+00 2.390099999999999891e+00 1.889440000000000008e+00 6.971860000000000390e+00 8.395500000000000185e-01 3.651170000000000027e+00 9.428979999999999251e+00 2.390109999999999957e+00 3.318789999999999907e+00 6.971870000000000012e+00 8.395399999999999530e-01 1.668840000000000101e+00 8.444279999999999120e+00 3.940850000000000186e+00 3.098180000000000156e+00 8.444269999999999499e+00 3.940840000000000121e+00 4.527519999999999989e+00 8.444269999999999499e+00 3.940830000000000055e+00 2.013199999999999878e+00 6.491130000000000067e+00 7.189239999999999853e+00 3.442550000000000221e+00 6.491150000000000198e+00 7.189230000000000231e+00 4.871879999999999988e+00 6.491139999999999688e+00 7.189230000000000231e+00 1.469279999999999919e+00 9.932890000000000441e+00 7.189180000000000348e+00 1.136910000000000087e+00 7.475769999999999804e+00 5.638620000000000410e+00 2.898620000000000196e+00 9.932890000000000441e+00 7.189189999999999969e+00 2.566240000000000077e+00 7.475789999999999935e+00 5.638620000000000410e+00 4.327950000000000408e+00 9.932909999999999684e+00 7.189180000000000348e+00 3.995579999999999909e+00 7.475780000000000314e+00 5.638630000000000031e+00 2.345619999999999816e+00 8.948199999999999932e+00 8.739929999999999310e+00 3.774970000000000159e+00 8.948199999999999932e+00 8.739910000000000068e+00 5.204320000000000057e+00 8.948190000000000310e+00 8.739919999999999689e+00 1.813700000000000090e+00 7.979700000000000237e+00 1.043769999999999953e+01 3.243040000000000145e+00 7.979689999999999728e+00 1.043769999999999953e+01 4.672380000000000422e+00 7.979700000000000237e+00 1.043768999999999991e+01 2.689999999999999947e+00 6.995049999999999990e+00 1.198832999999999949e+01 4.119329999999999714e+00 6.995059999999999611e+00 1.198831999999999987e+01 5.548670000000000435e+00 6.995049999999999990e+00 1.198831999999999987e+01 2.146069999999999922e+00 1.043682000000000087e+01 1.198826999999999998e+01 3.022429999999999950e+00 9.452109999999999346e+00 1.353899999999999970e+01 3.575410000000000199e+00 1.043682000000000087e+01 1.198826000000000036e+01 4.451780000000000292e+00 9.452109999999999346e+00 1.353899000000000008e+01 5.004769999999999719e+00 1.043680999999999948e+01 1.198826000000000036e+01 5.881120000000000125e+00 9.452109999999999346e+00 1.353899000000000008e+01 1.345529999999999893e+00 1.041366999999999976e+01 8.395500000000000185e-01 1.677939999999999987e+00 1.287076000000000064e+01 2.390159999999999840e+00 2.774880000000000013e+00 1.041369000000000078e+01 8.395599999999999730e-01 3.107270000000000199e+00 1.287076000000000064e+01 2.390159999999999840e+00 4.204220000000000290e+00 1.041367999999999938e+01 8.395500000000000185e-01 4.536629999999999718e+00 1.287074999999999925e+01 2.390159999999999840e+00 8.016499999999999737e-01 1.385540999999999912e+01 8.395500000000000185e-01 2.230980000000000185e+00 1.385539999999999949e+01 8.395399999999999530e-01 3.660340000000000149e+00 1.385539999999999949e+01 8.395399999999999530e-01 5.412959999999999994e+00 1.188602000000000025e+01 3.940799999999999859e+00 2.554260000000000197e+00 1.188601000000000063e+01 3.940799999999999859e+00 3.983620000000000161e+00 1.188602000000000025e+01 3.940789999999999793e+00 2.010380000000000056e+00 1.532780999999999949e+01 3.940850000000000186e+00 3.439709999999999823e+00 1.532780999999999949e+01 3.940850000000000186e+00 4.869060000000000166e+00 1.532780999999999949e+01 3.940830000000000055e+00 2.022330000000000183e+00 1.091760999999999981e+01 5.638630000000000031e+00 2.354740000000000055e+00 1.337467999999999968e+01 7.189250000000000362e+00 3.451680000000000081e+00 1.091759000000000057e+01 5.638639999999999652e+00 3.784069999999999823e+00 1.337467000000000006e+01 7.189250000000000362e+00 4.881020000000000358e+00 1.091760000000000019e+01 5.638639999999999652e+00 5.213409999999999656e+00 1.337467999999999968e+01 7.189239999999999853e+00 1.478429999999999911e+00 1.435932000000000031e+01 5.638620000000000410e+00 2.907770000000000188e+00 1.435931000000000068e+01 5.638620000000000410e+00 4.337130000000000152e+00 1.435931000000000068e+01 5.638620000000000410e+00 6.089750000000000441e+00 1.238992999999999967e+01 8.739879999999999427e+00 3.231050000000000200e+00 1.238993999999999929e+01 8.739879999999999427e+00 4.660409999999999719e+00 1.238992999999999967e+01 8.739879999999999427e+00 2.687159999999999993e+00 1.583173999999999992e+01 8.739910000000000068e+00 4.116509999999999891e+00 1.583173000000000030e+01 8.739919999999999689e+00 5.545849999999999724e+00 1.583173999999999992e+01 8.739919999999999689e+00 2.699129999999999807e+00 1.142151999999999923e+01 1.043769999999999953e+01 4.128470000000000084e+00 1.142151999999999923e+01 1.043772000000000055e+01 5.557809999999999917e+00 1.142150999999999961e+01 1.043770999999999916e+01 2.155219999999999914e+00 1.486325000000000074e+01 1.043770999999999916e+01 3.584560000000000191e+00 1.486322999999999972e+01 1.043770999999999916e+01 5.013910000000000089e+00 1.486322999999999972e+01 1.043769999999999953e+01 6.766549999999999621e+00 1.289385000000000048e+01 1.353894000000000020e+01 3.031530000000000058e+00 1.387859000000000087e+01 1.198831999999999987e+01 3.907859999999999889e+00 1.289385000000000048e+01 1.353894000000000020e+01 4.460860000000000269e+00 1.387859000000000087e+01 1.198831000000000024e+01 5.337200000000000166e+00 1.289386000000000010e+01 1.353895999999999944e+01 5.890220000000000233e+00 1.387859000000000087e+01 1.198831999999999987e+01 3.363960000000000061e+00 1.633564000000000149e+01 1.353899000000000008e+01 4.793300000000000338e+00 1.633564000000000149e+01 1.353899000000000008e+01 6.222640000000000171e+00 1.633564000000000149e+01 1.353899000000000008e+01 1.134020000000000028e+00 1.631250999999999962e+01 2.390109999999999957e+00 1.687079999999999913e+00 1.729720999999999975e+01 8.395599999999999730e-01 2.019460000000000033e+00 1.975430000000000064e+01 2.390169999999999906e+00 2.563369999999999926e+00 1.631251999999999924e+01 2.390099999999999891e+00 3.116420000000000190e+00 1.729721999999999937e+01 8.395599999999999730e-01 3.448809999999999931e+00 1.975429000000000102e+01 2.390159999999999840e+00 3.992700000000000138e+00 1.631251999999999924e+01 2.390099999999999891e+00 4.545759999999999579e+00 1.729722999999999900e+01 8.395500000000000185e-01 4.878160000000000274e+00 1.975429000000000102e+01 2.390169999999999906e+00 5.754500000000000171e+00 1.876954999999999885e+01 3.940799999999999859e+00 2.895799999999999930e+00 1.876954999999999885e+01 3.940799999999999859e+00 4.325149999999999828e+00 1.876953999999999922e+01 3.940789999999999793e+00 1.810799999999999965e+00 1.681644000000000005e+01 7.189180000000000348e+00 2.363869999999999916e+00 1.780113000000000056e+01 5.638630000000000031e+00 2.696270000000000167e+00 2.025822000000000145e+01 7.189250000000000362e+00 3.240159999999999929e+00 1.681644000000000005e+01 7.189189999999999969e+00 3.793219999999999814e+00 1.780114000000000019e+01 5.638630000000000031e+00 4.125600000000000378e+00 2.025820999999999827e+01 7.189250000000000362e+00 4.669509999999999827e+00 1.681643000000000043e+01 7.189189999999999969e+00 5.222559999999999647e+00 1.780113000000000056e+01 5.638630000000000031e+00 5.554949999999999832e+00 2.025820999999999827e+01 7.189239999999999853e+00 6.431289999999999729e+00 1.927346999999999966e+01 8.739860000000000184e+00 3.572589999999999932e+00 1.927347999999999928e+01 8.739869999999999806e+00 5.001929999999999765e+00 1.927346999999999966e+01 8.739869999999999806e+00 3.040669999999999984e+00 1.830506000000000100e+01 1.043769999999999953e+01 4.470010000000000261e+00 1.830506000000000100e+01 1.043769999999999953e+01 5.899350000000000094e+00 1.830506000000000100e+01 1.043770999999999916e+01 2.487600000000000033e+00 1.732035000000000124e+01 1.198826000000000036e+01 7.108089999999999797e+00 1.977739000000000047e+01 1.353895999999999944e+01 3.373069999999999791e+00 2.076211999999999946e+01 1.198831999999999987e+01 3.916959999999999997e+00 1.732036000000000087e+01 1.198826000000000036e+01 4.249390000000000001e+00 1.977739000000000047e+01 1.353894999999999982e+01 4.802399999999999558e+00 2.076211999999999946e+01 1.198831000000000024e+01 5.346289999999999765e+00 1.732034000000000162e+01 1.198826999999999998e+01 5.678740000000000343e+00 1.977739000000000047e+01 1.353894999999999982e+01 6.231740000000000279e+00 2.076213999999999871e+01 1.198832999999999949e+01