1.656393518209999911e+03
1.655821244969999952e+03
1.653395079460000034e+03
1.649108855519999906e+03
1.642970505100000082e+03
1.635012118059999921e+03
1.625309701579999910e+03
1.613998904609999954e+03
1.601287324099999978e+03
1.587452387809999891e+03
