5.759509999999999907e-01 -4.850858999999999810e+00 2.889618000000000020e+00 -5.757489999999999553e-01 4.859072000000000280e+00 -2.885555999999999788e+00 -5.764209999999999612e-01 4.850139999999999674e+00 -2.890207999999999888e+00 5.754629999999999468e-01 -4.851460999999999579e+00 2.889383000000000035e+00 -5.774820000000000508e-01 4.860318000000000360e+00 -2.885387000000000146e+00 -5.760549999999999837e-01 4.849438000000000137e+00 -2.890454000000000079e+00 5.761509999999999687e-01 -4.851238000000000383e+00 2.889984000000000108e+00 -5.765940000000000509e-01 4.859160000000000146e+00 -2.885774000000000061e+00 -5.756999999999999895e-01 4.849037000000000042e+00 -2.890502999999999822e+00 -5.768269999999999786e-01 4.858130000000000059e+00 -2.886338999999999988e+00 -5.762540000000000440e-01 4.850304999999999644e+00 -2.890090999999999966e+00 -5.766160000000000174e-01 4.859078000000000230e+00 -2.885822999999999805e+00 -5.763779999999999459e-01 4.851492999999999611e+00 -2.889610999999999930e+00 -5.760319999999999885e-01 4.858305999999999791e+00 -2.886070999999999831e+00 -5.755660000000000220e-01 4.849571000000000076e+00 -2.890606000000000009e+00 5.762899999999999689e-01 -4.850741000000000192e+00 2.889222999999999875e+00 5.752380000000000271e-01 -4.849651999999999852e+00 2.889740999999999893e+00 5.759199999999999875e-01 -4.850808999999999926e+00 2.889078000000000035e+00 5.755000000000000115e-01 -4.851379999999999804e+00 2.889578999999999898e+00 -5.757609999999999673e-01 4.857207999999999970e+00 -2.886674999999999880e+00 -5.760359999999999925e-01 4.850805000000000256e+00 -2.889739000000000058e+00 5.761269999999999447e-01 -4.850900000000000212e+00 2.889434000000000058e+00 -5.771539999999999448e-01 4.859365999999999630e+00 -2.885548000000000002e+00 -5.760340000000000460e-01 4.849663999999999753e+00 -2.890664000000000122e+00 5.761429999999999607e-01 -4.851058000000000092e+00 2.889095999999999886e+00 -5.767170000000000352e-01 4.858189000000000313e+00 -2.886134000000000199e+00 -5.764380000000000059e-01 4.851859000000000144e+00 -2.889244999999999841e+00 5.762629999999999697e-01 -4.846324000000000076e+00 2.890864000000000100e+00 5.757729999999999793e-01 -4.850615999999999595e+00 2.889714999999999812e+00 -5.760110000000000507e-01 4.849548999999999666e+00 -2.891026999999999791e+00 5.749079999999999746e-01 -4.846352000000000437e+00 2.890613000000000099e+00 5.762890000000000512e-01 -4.850918000000000063e+00 2.889842999999999940e+00 -5.764960000000000084e-01 4.849141000000000368e+00 -2.890690999999999899e+00 5.752690000000000303e-01 -4.846394000000000091e+00 2.890839000000000159e+00 5.762450000000000072e-01 -4.852361000000000146e+00 2.888704999999999856e+00 -5.756769999999999943e-01 4.849084000000000394e+00 -2.890420000000000211e+00 -5.759630000000000027e-01 4.849451000000000178e+00 -2.890617999999999910e+00 -5.757959999999999745e-01 4.850258000000000180e+00 -2.890277000000000207e+00 -5.759809999999999652e-01 4.848171999999999926e+00 -2.891522000000000148e+00 5.761269999999999447e-01 -4.847774000000000250e+00 2.889701000000000075e+00 5.757529999999999593e-01 -4.850810000000000066e+00 2.889009999999999856e+00 5.752690000000000303e-01 -4.846866000000000341e+00 2.890705000000000080e+00 5.755909999999999638e-01 -4.850183999999999607e+00 2.889654999999999863e+00 5.752099999999999991e-01 -4.847495000000000331e+00 2.890435000000000088e+00 5.759339999999999460e-01 -4.850704000000000349e+00 2.888872000000000106e+00 5.759809999999999652e-01 -4.845901999999999710e+00 2.891510999999999942e+00 5.758900000000000130e-01 -4.850336000000000425e+00 2.890045000000000197e+00 -5.757759999999999545e-01 4.849203000000000152e+00 -2.890477000000000185e+00 5.750859999999999861e-01 -4.845818999999999654e+00 2.891709999999999781e+00 5.764709999999999557e-01 -4.850736000000000381e+00 2.889273000000000202e+00 -5.761370000000000102e-01 4.850430000000000241e+00 -2.889925999999999995e+00 5.751380000000000381e-01 -4.845188000000000272e+00 2.891645000000000021e+00 5.752270000000000438e-01 -4.850422000000000011e+00 2.889512999999999998e+00 -5.760920000000000485e-01 4.848722000000000421e+00 -2.891058999999999823e+00 -5.768870000000000386e-01 4.859471000000000096e+00 -2.885085999999999817e+00 -5.766959999999999864e-01 4.857769000000000226e+00 -2.886188000000000198e+00 -5.761640000000000095e-01 4.859283999999999715e+00 -2.885365000000000180e+00 5.760110000000000507e-01 -4.845994000000000135e+00 2.891268999999999867e+00 -5.759950000000000347e-01 4.848963999999999608e+00 -2.891248000000000040e+00 5.749819999999999931e-01 -4.846135000000000304e+00 2.890839999999999854e+00 -5.756890000000000063e-01 4.848715000000000330e+00 -2.891465000000000174e+00 5.756829999999999448e-01 -4.847317999999999572e+00 2.890118000000000187e+00 -5.758339999999999570e-01 4.850149000000000044e+00 -2.890254999999999797e+00 -5.764439999999999564e-01 4.859916000000000125e+00 -2.885495999999999839e+00 -5.765200000000000324e-01 4.858456999999999582e+00 -2.885963999999999974e+00 -5.768999999999999684e-01 4.859066999999999581e+00 -2.886156999999999861e+00 -5.757619999999999960e-01 4.849802999999999642e+00 -2.890104000000000006e+00 -5.763660000000000450e-01 4.850073000000000079e+00 -2.890804999999999847e+00 -5.757330000000000503e-01 4.848437999999999803e+00 -2.891290000000000138e+00 5.751359999999999806e-01 -4.845718999999999888e+00 2.891197000000000017e+00 5.751410000000000133e-01 -4.846522000000000219e+00 2.890597999999999779e+00 5.759490000000000443e-01 -4.844905999999999935e+00 2.891556000000000015e+00 -5.766379999999999839e-01 4.859492000000000367e+00 -2.885158000000000111e+00 -5.773439999999999683e-01 4.859308999999999656e+00 -2.885301000000000116e+00 -5.761140000000000150e-01 4.857615000000000016e+00 -2.886352000000000029e+00 5.757400000000000295e-01 -4.847227000000000174e+00 2.890178000000000136e+00 -5.756740000000000190e-01 4.850741000000000192e+00 -2.889679000000000109e+00 5.752209999999999823e-01 -4.847544000000000075e+00 2.890709999999999891e+00 -5.757900000000000240e-01 4.848079000000000249e+00 -2.891274999999999817e+00 5.760610000000000452e-01 -4.847159999999999691e+00 2.890483999999999831e+00 -5.764310000000000267e-01 4.850856000000000279e+00 -2.889955000000000052e+00 5.755080000000000195e-01 -4.845131000000000299e+00 2.891328000000000120e+00 5.752969999999999473e-01 -4.847306999999999810e+00 2.889977000000000018e+00 5.757189999999999808e-01 -4.846255000000000202e+00 2.890613999999999795e+00 5.760239999999999805e-01 -4.850998999999999839e+00 2.889705000000000190e+00 -5.761859999999999760e-01 4.858812000000000353e+00 -2.886375000000000135e+00 5.751389999999999558e-01 -4.849840000000000373e+00 2.890438000000000063e+00 -5.771249999999999991e-01 4.858864999999999768e+00 -2.886200999999999794e+00 5.764599999999999724e-01 -4.851199000000000261e+00 2.889066000000000134e+00 -5.766299999999999759e-01 4.859441999999999595e+00 -2.885438999999999865e+00 -5.766679999999999584e-01 4.857517999999999780e+00 -2.886582999999999899e+00 -5.767139999999999489e-01 4.858355000000000423e+00 -2.886204999999999909e+00 -5.758729999999999682e-01 4.857889000000000124e+00 -2.886483000000000132e+00 5.751490000000000213e-01 -4.846061999999999870e+00 2.890768000000000004e+00 5.756489999999999663e-01 -4.845945000000000391e+00 2.891213000000000033e+00 5.751699999999999591e-01 -4.844918999999999976e+00 2.891563999999999801e+00 5.762509999999999577e-01 -4.852219999999999978e+00 2.888735000000000053e+00 5.752939999999999721e-01 -4.849967999999999613e+00 2.890232000000000134e+00 5.755850000000000133e-01 -4.850130000000000052e+00 2.890556999999999821e+00 5.753380000000000161e-01 -4.845372000000000234e+00 2.891223000000000098e+00 5.759450000000000403e-01 -4.845903999999999989e+00 2.891270000000000007e+00 5.751349999999999518e-01 -4.845674999999999955e+00 2.891494999999999926e+00 5.752899999999999681e-01 -4.852160999999999724e+00 2.889607999999999954e+00 -5.769170000000000131e-01 4.859456999999999915e+00 -2.885644000000000098e+00 5.759220000000000450e-01 -4.851734999999999687e+00 2.889588999999999963e+00 -5.770159999999999734e-01 4.858468000000000231e+00 -2.885994000000000170e+00 5.765200000000000324e-01 -4.851227999999999874e+00 2.889759999999999884e+00 -5.756459999999999910e-01 4.858577000000000368e+00 -2.886423000000000183e+00 7.901999999999999302e-03 -4.048999999999999648e-03 4.401000000000000398e-03 2.363195000000000157e+00 -1.649340899999999976e+01 -1.541071999999999953e+01 2.367754999999999832e+00 -1.648884999999999934e+01 -1.540730399999999989e+01 -6.184000000000000261e-03 -3.815999999999999948e-03 3.726000000000000145e-03 2.363593999999999973e+00 -1.649362999999999957e+01 -1.541070000000000029e+01 2.358401999999999887e+00 -1.648979399999999984e+01 -1.540696699999999986e+01 -2.131000000000000082e-03 -3.007999999999999823e-03 4.355999999999999629e-03 2.359614000000000100e+00 -1.649306599999999889e+01 -1.541052700000000009e+01 2.359195999999999849e+00 -1.648984799999999851e+01 -1.540685099999999963e+01 -2.359576000000000118e+00 1.649074500000000043e+01 1.540783099999999983e+01 -2.367358999999999991e+00 1.649140999999999835e+01 1.540331899999999976e+01 -2.365969000000000211e+00 1.649161199999999994e+01 1.540705200000000019e+01 -2.357779999999999987e+00 1.649140299999999826e+01 1.540296999999999983e+01 -2.360974999999999824e+00 1.649154000000000053e+01 1.540729900000000008e+01 -2.360990999999999840e+00 1.649001399999999862e+01 1.540347700000000053e+01 -2.030999999999999819e-03 -2.909000000000000127e-03 4.153999999999999707e-03 2.356597999999999971e+00 -1.649355999999999867e+01 -1.540942899999999938e+01 2.356303000000000036e+00 -1.649003599999999992e+01 -1.540532999999999930e+01 -6.870000000000000022e-04 -2.792000000000000211e-03 4.043999999999999852e-03 2.361561000000000021e+00 -1.649369599999999991e+01 -1.540906400000000076e+01 2.368843000000000032e+00 -1.649075099999999949e+01 -1.540485499999999952e+01 2.194000000000000204e-03 -3.203000000000000118e-03 4.988000000000000246e-03 2.368039000000000005e+00 -1.649386200000000002e+01 -1.540917999999999921e+01 2.360202999999999829e+00 -1.649111399999999961e+01 -1.540526200000000046e+01 -2.354569000000000134e+00 1.649092699999999923e+01 1.540593100000000071e+01 -2.361193999999999793e+00 1.649122200000000049e+01 1.540256699999999945e+01 -2.365237000000000034e+00 1.649114199999999997e+01 1.540554799999999958e+01 -2.362099999999999866e+00 1.649146500000000160e+01 1.540288499999999949e+01 -2.366633000000000209e+00 1.649124499999999927e+01 1.540519199999999955e+01 -2.362452000000000218e+00 1.649163799999999824e+01 1.540352599999999939e+01 2.361311999999999856e+00 -1.649384399999999928e+01 -1.540855200000000025e+01 2.354727000000000015e+00 -1.648924399999999935e+01 -1.540620900000000049e+01 2.367564999999999920e+00 -1.649465700000000012e+01 -1.540911400000000064e+01 2.365994999999999848e+00 -1.648956700000000097e+01 -1.540705499999999972e+01 2.357139999999999791e+00 -1.649475299999999933e+01 -1.540873999999999988e+01 2.364891000000000076e+00 -1.648984000000000094e+01 -1.540627800000000036e+01 -6.695000000000000430e-03 -3.608000000000000096e-03 2.393999999999999861e-03 -2.360501999999999878e+00 1.649092399999999969e+01 1.540521500000000010e+01 -2.360784000000000216e+00 1.649250699999999981e+01 1.540261199999999953e+01 3.482999999999999985e-03 -2.962999999999999922e-03 2.871999999999999987e-03 -2.360796000000000117e+00 1.649063699999999955e+01 1.540521299999999982e+01 -2.365533999999999804e+00 1.649250800000000083e+01 1.540209399999999995e+01 3.069999999999999812e-03 -2.922000000000000118e-03 2.331999999999999872e-03 -2.365254000000000190e+00 1.648975700000000089e+01 1.540615200000000051e+01 -2.360068000000000055e+00 1.649254200000000026e+01 1.540199800000000074e+01 2.023000000000000059e-03 -4.872999999999999728e-03 -1.340000000000000045e-04 -3.542000000000000010e-03 -3.821000000000000178e-03 -4.749999999999999990e-04 2.824999999999999820e-03 -3.982000000000000296e-03 -5.140000000000000254e-04 4.769999999999999934e-04 -2.765000000000000097e-03 4.230000000000000253e-03 2.359757000000000104e+00 -1.648902100000000104e+01 -1.540600799999999992e+01 -2.703999999999999806e-03 -2.635000000000000189e-03 3.400999999999999943e-03 2.365107000000000070e+00 -1.648929199999999895e+01 -1.540508600000000072e+01 1.396000000000000105e-03 -2.344000000000000163e-03 3.856000000000000053e-03 2.360409000000000201e+00 -1.648889099999999885e+01 -1.540625900000000037e+01 -2.363161999999999985e+00 1.649024899999999860e+01 1.540228899999999967e+01 -2.364564999999999806e+00 1.648987800000000092e+01 1.540210199999999929e+01 -2.358143999999999796e+00 1.649017100000000013e+01 1.540227299999999921e+01 -7.039999999999999817e-04 -7.072000000000000161e-03 1.526999999999999929e-03 -2.948000000000000100e-03 -6.092000000000000193e-03 6.999999999999999929e-04 4.542000000000000030e-03 -6.648000000000000263e-03 4.300000000000000165e-05 -4.649000000000000354e-03 -2.217999999999999920e-03 3.945999999999999855e-03 2.356421000000000099e+00 -1.649170399999999859e+01 -1.540609700000000082e+01 -1.858000000000000059e-03 -2.768000000000000061e-03 4.119000000000000265e-03 2.361943999999999821e+00 -1.649135300000000015e+01 -1.540597900000000031e+01 6.030999999999999903e-03 -1.915999999999999951e-03 3.158000000000000217e-03 2.367051000000000016e+00 -1.649160600000000088e+01 -1.540603100000000047e+01 -2.357155000000000111e+00 1.649068099999999859e+01 1.540379100000000001e+01 -2.364021999999999846e+00 1.649078300000000041e+01 1.540256199999999964e+01 -2.365200999999999887e+00 1.649105799999999888e+01 1.540364499999999914e+01 2.360904999999999809e+00 -1.648986700000000027e+01 -1.540479099999999946e+01 2.360069000000000194e+00 -1.648992300000000100e+01 -1.540492899999999921e+01 2.364396000000000164e+00 -1.649008099999999999e+01 -1.540555900000000022e+01 -3.562000000000000062e-03 -6.287000000000000054e-03 5.019999999999999506e-04 3.475999999999999923e-03 -6.509000000000000029e-03 -3.089999999999999756e-04 1.621000000000000045e-03 -6.585999999999999840e-03 2.599999999999999772e-04 9.840000000000000656e-04 -1.521000000000000000e-03 5.231000000000000406e-03 -2.363376000000000143e+00 1.649142499999999956e+01 1.540404099999999943e+01 4.152999999999999574e-03 -2.876999999999999783e-03 4.276000000000000287e-03 -2.363258000000000081e+00 1.649154599999999959e+01 1.540375399999999928e+01 -5.583000000000000289e-03 -1.987000000000000051e-03 4.998999999999999971e-03 -2.359541000000000111e+00 1.649185100000000048e+01 1.540380099999999963e+01 2.363198000000000132e+00 -1.649403799999999976e+01 -1.541032799999999980e+01 -8.540000000000000499e-04 -6.007000000000000187e-03 3.040000000000000167e-04 2.361915999999999904e+00 -1.649284099999999853e+01 -1.540942800000000013e+01 6.460999999999999729e-03 -6.658999999999999989e-03 -1.830000000000000029e-04 2.360821000000000058e+00 -1.649358099999999894e+01 -1.540964400000000012e+01 -4.492000000000000333e-03 -6.616000000000000353e-03 3.800000000000000209e-04 2.359992999999999785e+00 -1.649012499999999903e+01 -1.540630699999999997e+01 2.367431999999999981e+00 -1.649082100000000040e+01 -1.540690999999999988e+01 2.357146999999999881e+00 -1.649099400000000060e+01 -1.540645600000000037e+01 -2.363948000000000160e+00 1.649108299999999971e+01 1.540622899999999973e+01 -2.355358999999999980e+00 1.649014899999999884e+01 1.540580399999999983e+01 -2.367150000000000087e+00 1.649108999999999980e+01 1.540560800000000086e+01 -2.365978999999999832e+00 1.649024199999999851e+01 1.540369500000000080e+01 -2.358543000000000056e+00 1.649132499999999979e+01 1.540461099999999917e+01 -2.361508999999999858e+00 1.649091299999999904e+01 1.540302100000000074e+01 2.363509000000000082e+00 -1.649302799999999891e+01 -1.541034800000000082e+01 -5.083999999999999977e-03 -5.231000000000000406e-03 3.710000000000000190e-04 2.360676000000000219e+00 -1.649380599999999930e+01 -1.541037099999999960e+01 6.570000000000000319e-04 -5.591999999999999749e-03 8.120000000000000048e-04 2.362344999999999917e+00 -1.649308500000000066e+01 -1.540997800000000062e+01 5.775999999999999884e-03 -5.792000000000000273e-03 -4.679999999999999915e-04 2.364619999999999944e+00 -1.648953200000000052e+01 -1.540567300000000017e+01 2.364050000000000207e+00 -1.649029200000000017e+01 -1.540544799999999981e+01 2.356021000000000143e+00 -1.648997999999999919e+01 -1.540533100000000033e+01 -2.362632000000000065e+00 1.649234600000000128e+01 1.540603800000000057e+01 -2.357366999999999990e+00 1.649238499999999874e+01 1.540608499999999914e+01 -2.366270999999999791e+00 1.649171300000000073e+01 1.540627100000000027e+01 -2.362732999999999972e+00 1.648988800000000055e+01 1.540177399999999963e+01 -2.362944999999999851e+00 1.648915500000000023e+01 1.540262700000000073e+01 -2.360135000000000094e+00 1.648905999999999850e+01 1.540222600000000064e+01 2.360720000000000152e+00 -1.649215900000000090e+01 -1.540889600000000037e+01 2.364053000000000182e+00 -1.649223699999999937e+01 -1.540833600000000025e+01 2.361524000000000179e+00 -1.649260999999999910e+01 -1.540883799999999937e+01 2.363872000000000195e+00 -1.649100100000000069e+01 -1.540591599999999950e+01 2.363325999999999816e+00 -1.649178300000000164e+01 -1.540601500000000001e+01 2.358013999999999832e+00 -1.649149099999999990e+01 -1.540595800000000004e+01 -2.366318000000000144e+00 1.649055200000000099e+01 1.540454199999999929e+01 -1.618999999999999996e-03 -6.479000000000000384e-03 7.749999999999999728e-04 -2.361209000000000113e+00 1.649091100000000054e+01 1.540471699999999977e+01 3.993000000000000022e-03 -6.551000000000000399e-03 3.440000000000000132e-04 -2.358455999999999886e+00 1.649104099999999917e+01 1.540560600000000058e+01 -1.353999999999999952e-03 -6.686000000000000103e-03 1.335000000000000032e-03 -2.363607000000000014e+00 1.649011099999999885e+01 1.540278299999999945e+01 -2.359967999999999844e+00 1.649022799999999833e+01 1.540357299999999974e+01 -2.362833000000000183e+00 1.649018799999999985e+01 1.540366500000000016e+01 1.110000000000000011e-04 -3.678999999999999979e-03 5.480999999999999761e-03 2.358546000000000031e+00 -1.649468399999999946e+01 -1.540915799999999969e+01 5.381000000000000366e-03 -5.009000000000000431e-03 -8.059999999999999673e-04 -7.040000000000000251e-03 -3.036000000000000070e-03 5.374000000000000304e-03 2.363328999999999791e+00 -1.649402800000000013e+01 -1.540997400000000006e+01 -9.759999999999999796e-04 -5.117000000000000021e-03 -6.049999999999999606e-04 6.197000000000000251e-03 -3.976999999999999633e-03 4.236000000000000182e-03 2.364682000000000173e+00 -1.649418700000000015e+01 -1.541031800000000018e+01 -3.014000000000000186e-03 -4.955000000000000203e-03 -1.699999999999999987e-05 -2.363907999999999898e+00 1.649142200000000003e+01 1.540619700000000059e+01 -2.359752999999999989e+00 1.649100899999999825e+01 1.540552300000000052e+01 -2.362763000000000169e+00 1.649117000000000033e+01 1.540612600000000043e+01 7.095999999999999877e-03 -4.274000000000000021e-03 3.046999999999999795e-03 2.362906999999999869e+00 -1.649411100000000019e+01 -1.540839000000000070e+01 -2.543999999999999821e-03 -5.244000000000000397e-03 3.669999999999999760e-04 -3.008999999999999956e-03 -4.079000000000000160e-03 4.353000000000000098e-03 2.359507999999999939e+00 -1.649358600000000052e+01 -1.540807099999999963e+01 4.044999999999999984e-03 -6.017999999999999912e-03 -3.300000000000000253e-05 -4.256000000000000234e-03 -4.512999999999999651e-03 4.375000000000000416e-03 2.363144999999999829e+00 -1.649366900000000058e+01 -1.540794099999999922e+01 -1.610000000000000103e-04 -5.863000000000000156e-03 -3.759999999999999779e-04 -2.370242000000000182e+00 1.649136199999999874e+01 1.540548700000000082e+01 -2.360338000000000047e+00 1.649036999999999864e+01 1.540504999999999924e+01 -2.355294999999999916e+00 1.649038600000000088e+01 1.540493900000000060e+01 2.360637999999999792e+00 -1.649368700000000132e+01 -1.541041700000000070e+01 2.364336000000000215e+00 -1.649393299999999840e+01 -1.541063800000000050e+01 2.360840000000000050e+00 -1.649374900000000110e+01 -1.541001900000000013e+01 4.376999999999999814e-03 -4.265999999999999827e-03 3.880999999999999901e-03 -2.364755000000000162e+00 1.649192000000000036e+01 1.540683800000000048e+01 -6.131000000000000165e-03 -4.648000000000000222e-03 -1.154999999999999994e-03 -4.830000000000000092e-03 -3.256999999999999913e-03 4.303000000000000401e-03 -2.358366999999999880e+00 1.649276400000000109e+01 1.540705900000000028e+01 1.649999999999999991e-03 -4.174999999999999892e-03 -1.280000000000000105e-03 -1.010000000000000020e-04 -4.555000000000000021e-03 4.867999999999999931e-03 -2.363640999999999881e+00 1.649303099999999844e+01 1.540713799999999978e+01 5.910000000000000323e-03 -4.560999999999999950e-03 -1.580999999999999940e-03