1.076228431000000008e+01 0.000000000000000000e+00 0.000000000000000000e+00 0.000000000000000000e+00 1.491265925999999986e+01 0.000000000000000000e+00 0.000000000000000000e+00 0.000000000000000000e+00 2.002862542000000090e+01
1.076228431000000008e+01 0.000000000000000000e+00 0.000000000000000000e+00 0.000000000000000000e+00 1.491265925999999986e+01 0.000000000000000000e+00 0.000000000000000000e+00 0.000000000000000000e+00 2.002862542000000090e+01
1.076228431000000008e+01 0.000000000000000000e+00 0.000000000000000000e+00 0.000000000000000000e+00 1.491265925999999986e+01 0.000000000000000000e+00 0.000000000000000000e+00 0.000000000000000000e+00 2.002862542000000090e+01
1.076228431000000008e+01 0.000000000000000000e+00 0.000000000000000000e+00 0.000000000000000000e+00 1.491265925999999986e+01 0.000000000000000000e+00 0.000000000000000000e+00 0.000000000000000000e+00 2.002862542000000090e+01
1.076228431000000008e+01 0.000000000000000000e+00 0.000000000000000000e+00 0.000000000000000000e+00 1.491265925999999986e+01 0.000000000000000000e+00 0.000000000000000000e+00 0.000000000000000000e+00 2.002862542000000090e+01
