1.499999999999999869e-04 1.488926000000000016e+01 4.599029999999999951e+00 1.793870000000000076e+00 2.462040000000000006e+00 4.599029999999999951e+00 1.499999999999999869e-04 3.337229999999999919e+00 2.051010000000000222e+00 1.793860000000000010e+00 8.517900000000000471e-01 2.051010000000000222e+00 3.587579999999999991e+00 1.488926000000000016e+01 4.599029999999999951e+00 5.381300000000000416e+00 2.462040000000000006e+00 4.599029999999999951e+00 3.587579999999999991e+00 3.337229999999999919e+00 2.051010000000000222e+00 5.381289999999999907e+00 8.517900000000000471e-01 2.051010000000000222e+00 7.175010000000000332e+00 1.488926000000000016e+01 4.599029999999999951e+00 8.968719999999999359e+00 2.462040000000000006e+00 4.599029999999999951e+00 7.174999999999999822e+00 3.337229999999999919e+00 2.051010000000000222e+00 8.968719999999999359e+00 8.517900000000000471e-01 2.051010000000000222e+00 1.499999999999999869e-04 4.947479999999999656e+00 4.599029999999999951e+00 1.793870000000000076e+00 7.432929999999999815e+00 4.599029999999999951e+00 1.499999999999999869e-04 8.308120000000000616e+00 2.051010000000000222e+00 1.793860000000000010e+00 5.822680000000000078e+00 2.051010000000000222e+00 3.587579999999999991e+00 4.947479999999999656e+00 4.599029999999999951e+00 5.381300000000000416e+00 7.432929999999999815e+00 4.599029999999999951e+00 3.587579999999999991e+00 8.308120000000000616e+00 2.051010000000000222e+00 5.381289999999999907e+00 5.822680000000000078e+00 2.051010000000000222e+00 7.175010000000000332e+00 4.947479999999999656e+00 4.599029999999999951e+00 8.968719999999999359e+00 7.432929999999999815e+00 4.599029999999999951e+00 7.174999999999999822e+00 8.308120000000000616e+00 2.051010000000000222e+00 8.968719999999999359e+00 5.822680000000000078e+00 2.051010000000000222e+00 1.499999999999999869e-04 9.918369999999999465e+00 4.599029999999999951e+00 1.793870000000000076e+00 1.240381999999999962e+01 4.599029999999999951e+00 1.499999999999999869e-04 1.327899999999999991e+01 2.051010000000000222e+00 1.793860000000000010e+00 1.079355999999999938e+01 2.051010000000000222e+00 3.587579999999999991e+00 9.918369999999999465e+00 4.599029999999999951e+00 5.381300000000000416e+00 1.240381999999999962e+01 4.599029999999999951e+00 3.587579999999999991e+00 1.327899999999999991e+01 2.051010000000000222e+00 5.381289999999999907e+00 1.079355999999999938e+01 2.051010000000000222e+00 7.175010000000000332e+00 9.918369999999999465e+00 4.599029999999999951e+00 8.968719999999999359e+00 1.240381999999999962e+01 4.599029999999999951e+00 7.174999999999999822e+00 1.327899999999999991e+01 2.051010000000000222e+00 8.968719999999999359e+00 1.079355999999999938e+01 2.051010000000000222e+00 1.499999999999999869e-04 1.488926000000000016e+01 1.127524000000000015e+01 1.793870000000000076e+00 2.462040000000000006e+00 1.127524000000000015e+01 1.499999999999999869e-04 3.337229999999999919e+00 8.727220000000000866e+00 1.793860000000000010e+00 8.517900000000000471e-01 8.727220000000000866e+00 3.587579999999999991e+00 1.488926000000000016e+01 1.127524000000000015e+01 5.381300000000000416e+00 2.462040000000000006e+00 1.127524000000000015e+01 3.587579999999999991e+00 3.337229999999999919e+00 8.727220000000000866e+00 5.381289999999999907e+00 8.517900000000000471e-01 8.727220000000000866e+00 7.175010000000000332e+00 1.488926000000000016e+01 1.127524000000000015e+01 8.968719999999999359e+00 2.462040000000000006e+00 1.127524000000000015e+01 7.174999999999999822e+00 3.337229999999999919e+00 8.727220000000000866e+00 8.968719999999999359e+00 8.517900000000000471e-01 8.727220000000000866e+00 1.499999999999999869e-04 4.947479999999999656e+00 1.127524000000000015e+01 1.793870000000000076e+00 7.432929999999999815e+00 1.127524000000000015e+01 1.499999999999999869e-04 8.308120000000000616e+00 8.727220000000000866e+00 1.793860000000000010e+00 5.822680000000000078e+00 8.727220000000000866e+00 3.587579999999999991e+00 4.947479999999999656e+00 1.127524000000000015e+01 5.381300000000000416e+00 7.432929999999999815e+00 1.127524000000000015e+01 3.587579999999999991e+00 8.308120000000000616e+00 8.727220000000000866e+00 5.381289999999999907e+00 5.822680000000000078e+00 8.727220000000000866e+00 7.175010000000000332e+00 4.947479999999999656e+00 1.127524000000000015e+01 8.968719999999999359e+00 7.432929999999999815e+00 1.127524000000000015e+01 7.174999999999999822e+00 8.308120000000000616e+00 8.727220000000000866e+00 8.968719999999999359e+00 5.822680000000000078e+00 8.727220000000000866e+00 1.499999999999999869e-04 9.918369999999999465e+00 1.127524000000000015e+01 1.793870000000000076e+00 1.240381999999999962e+01 1.127524000000000015e+01 1.499999999999999869e-04 1.327899999999999991e+01 8.727220000000000866e+00 1.793860000000000010e+00 1.079355999999999938e+01 8.727220000000000866e+00 3.587579999999999991e+00 9.918369999999999465e+00 1.127524000000000015e+01 5.381300000000000416e+00 1.240381999999999962e+01 1.127524000000000015e+01 3.587579999999999991e+00 1.327899999999999991e+01 8.727220000000000866e+00 5.381289999999999907e+00 1.079355999999999938e+01 8.727220000000000866e+00 7.175010000000000332e+00 9.918369999999999465e+00 1.127524000000000015e+01 8.968719999999999359e+00 1.240381999999999962e+01 1.127524000000000015e+01 7.174999999999999822e+00 1.327899999999999991e+01 8.727220000000000866e+00 8.968719999999999359e+00 1.079355999999999938e+01 8.727220000000000866e+00 1.499999999999999869e-04 1.488926000000000016e+01 1.795145000000000124e+01 1.793870000000000076e+00 2.462040000000000006e+00 1.795145000000000124e+01 1.499999999999999869e-04 3.337229999999999919e+00 1.540343000000000018e+01 1.793860000000000010e+00 8.517900000000000471e-01 1.540343000000000018e+01 3.587579999999999991e+00 1.488926000000000016e+01 1.795145000000000124e+01 5.381300000000000416e+00 2.462040000000000006e+00 1.795145000000000124e+01 3.587579999999999991e+00 3.337229999999999919e+00 1.540343000000000018e+01 5.381289999999999907e+00 8.517900000000000471e-01 1.540343000000000018e+01 7.175010000000000332e+00 1.488926000000000016e+01 1.795145000000000124e+01 8.968719999999999359e+00 2.462040000000000006e+00 1.795145000000000124e+01 7.174999999999999822e+00 3.337229999999999919e+00 1.540343000000000018e+01 8.968719999999999359e+00 8.517900000000000471e-01 1.540343000000000018e+01 1.499999999999999869e-04 4.947479999999999656e+00 1.795145000000000124e+01 1.793870000000000076e+00 7.432929999999999815e+00 1.795145000000000124e+01 1.499999999999999869e-04 8.308120000000000616e+00 1.540343000000000018e+01 1.793860000000000010e+00 5.822680000000000078e+00 1.540343000000000018e+01 3.587579999999999991e+00 4.947479999999999656e+00 1.795145000000000124e+01 5.381300000000000416e+00 7.432929999999999815e+00 1.795145000000000124e+01 3.587579999999999991e+00 8.308120000000000616e+00 1.540343000000000018e+01 5.381289999999999907e+00 5.822680000000000078e+00 1.540343000000000018e+01 7.175010000000000332e+00 4.947479999999999656e+00 1.795145000000000124e+01 8.968719999999999359e+00 7.432929999999999815e+00 1.795145000000000124e+01 7.174999999999999822e+00 8.308120000000000616e+00 1.540343000000000018e+01 8.968719999999999359e+00 5.822680000000000078e+00 1.540343000000000018e+01 1.499999999999999869e-04 9.918369999999999465e+00 1.795145000000000124e+01 1.793870000000000076e+00 1.240381999999999962e+01 1.795145000000000124e+01 1.499999999999999869e-04 1.327899999999999991e+01 1.540343000000000018e+01 1.793860000000000010e+00 1.079355999999999938e+01 1.540343000000000018e+01 3.587579999999999991e+00 9.918369999999999465e+00 1.795145000000000124e+01 5.381300000000000416e+00 1.240381999999999962e+01 1.795145000000000124e+01 3.587579999999999991e+00 1.327899999999999991e+01 1.540343000000000018e+01 5.381289999999999907e+00 1.079355999999999938e+01 1.540343000000000018e+01 7.175010000000000332e+00 9.918369999999999465e+00 1.795145000000000124e+01 8.968719999999999359e+00 1.240381999999999962e+01 1.795145000000000124e+01 7.174999999999999822e+00 1.327899999999999991e+01 1.540343000000000018e+01 8.968719999999999359e+00 1.079355999999999938e+01 1.540343000000000018e+01 1.399999999999999877e-04 1.656930000000000014e+00 3.325060000000000127e+00 1.499999999999999869e-04 3.183009999999999895e+00 5.553670000000000329e+00 1.793860000000000010e+00 2.616280000000000161e+00 1.096449999999999925e+00 1.499999999999999869e-04 1.308400000000000118e-01 1.096459999999999990e+00 1.793860000000000010e+00 4.142369999999999663e+00 3.325060000000000127e+00 1.793860000000000010e+00 6.975599999999999579e-01 5.553670000000000329e+00 3.587569999999999926e+00 1.656930000000000014e+00 3.325060000000000127e+00 3.587579999999999991e+00 3.183009999999999895e+00 5.553670000000000329e+00 5.381289999999999907e+00 2.616280000000000161e+00 1.096449999999999925e+00 3.587579999999999991e+00 1.308400000000000118e-01 1.096459999999999990e+00 5.381280000000000285e+00 4.142369999999999663e+00 3.325060000000000127e+00 5.381289999999999907e+00 6.975599999999999579e-01 5.553670000000000329e+00 7.174999999999999822e+00 1.656930000000000014e+00 3.325060000000000127e+00 7.175010000000000332e+00 3.183009999999999895e+00 5.553670000000000329e+00 8.968719999999999359e+00 2.616280000000000161e+00 1.096449999999999925e+00 7.174999999999999822e+00 1.308400000000000118e-01 1.096459999999999990e+00 8.968709999999999738e+00 4.142369999999999663e+00 3.325060000000000127e+00 8.968719999999999359e+00 6.975599999999999579e-01 5.553670000000000329e+00 1.399999999999999877e-04 6.627810000000000201e+00 3.325060000000000127e+00 1.499999999999999869e-04 8.153900000000000148e+00 5.553670000000000329e+00 1.793860000000000010e+00 7.587159999999999904e+00 1.096449999999999925e+00 1.499999999999999869e-04 5.101729999999999876e+00 1.096459999999999990e+00 1.793860000000000010e+00 9.113260000000000360e+00 3.325060000000000127e+00 1.793860000000000010e+00 5.668449999999999989e+00 5.553670000000000329e+00 3.587569999999999926e+00 6.627810000000000201e+00 3.325060000000000127e+00 3.587579999999999991e+00 8.153900000000000148e+00 5.553670000000000329e+00 5.381289999999999907e+00 7.587159999999999904e+00 1.096449999999999925e+00 3.587579999999999991e+00 5.101729999999999876e+00 1.096459999999999990e+00 5.381280000000000285e+00 9.113260000000000360e+00 3.325060000000000127e+00 5.381289999999999907e+00 5.668449999999999989e+00 5.553670000000000329e+00 7.174999999999999822e+00 6.627810000000000201e+00 3.325060000000000127e+00 7.175010000000000332e+00 8.153900000000000148e+00 5.553670000000000329e+00 8.968719999999999359e+00 7.587159999999999904e+00 1.096449999999999925e+00 7.174999999999999822e+00 5.101729999999999876e+00 1.096459999999999990e+00 8.968709999999999738e+00 9.113260000000000360e+00 3.325060000000000127e+00 8.968719999999999359e+00 5.668449999999999989e+00 5.553670000000000329e+00 1.399999999999999877e-04 1.159869999999999912e+01 3.325060000000000127e+00 1.499999999999999869e-04 1.312479000000000084e+01 5.553670000000000329e+00 1.793860000000000010e+00 1.255804999999999971e+01 1.096449999999999925e+00 1.499999999999999869e-04 1.007262000000000057e+01 1.096459999999999990e+00 1.793860000000000010e+00 1.408413999999999966e+01 3.325060000000000127e+00 1.793860000000000010e+00 1.063934000000000069e+01 5.553670000000000329e+00 3.587569999999999926e+00 1.159869999999999912e+01 3.325060000000000127e+00 3.587579999999999991e+00 1.312479000000000084e+01 5.553670000000000329e+00 5.381289999999999907e+00 1.255804999999999971e+01 1.096449999999999925e+00 3.587579999999999991e+00 1.007262000000000057e+01 1.096459999999999990e+00 5.381280000000000285e+00 1.408413999999999966e+01 3.325060000000000127e+00 5.381289999999999907e+00 1.063934000000000069e+01 5.553670000000000329e+00 7.174999999999999822e+00 1.159869999999999912e+01 3.325060000000000127e+00 7.175010000000000332e+00 1.312479000000000084e+01 5.553670000000000329e+00 8.968719999999999359e+00 1.255804999999999971e+01 1.096449999999999925e+00 7.174999999999999822e+00 1.007262000000000057e+01 1.096459999999999990e+00 8.968709999999999738e+00 1.408413999999999966e+01 3.325060000000000127e+00 8.968719999999999359e+00 1.063934000000000069e+01 5.553670000000000329e+00 1.399999999999999877e-04 1.656930000000000014e+00 1.000126999999999988e+01 1.499999999999999869e-04 3.183009999999999895e+00 1.222987999999999964e+01 1.793860000000000010e+00 2.616280000000000161e+00 7.772660000000000124e+00 1.499999999999999869e-04 1.308400000000000118e-01 7.772660000000000124e+00 1.793860000000000010e+00 4.142369999999999663e+00 1.000126999999999988e+01 1.793860000000000010e+00 6.975599999999999579e-01 1.222987000000000002e+01 3.587569999999999926e+00 1.656930000000000014e+00 1.000126999999999988e+01 3.587579999999999991e+00 3.183009999999999895e+00 1.222987999999999964e+01 5.381289999999999907e+00 2.616280000000000161e+00 7.772660000000000124e+00 3.587579999999999991e+00 1.308400000000000118e-01 7.772660000000000124e+00 5.381280000000000285e+00 4.142369999999999663e+00 1.000126999999999988e+01 5.381289999999999907e+00 6.975599999999999579e-01 1.222987000000000002e+01 7.174999999999999822e+00 1.656930000000000014e+00 1.000126999999999988e+01 7.175010000000000332e+00 3.183009999999999895e+00 1.222987999999999964e+01 8.968719999999999359e+00 2.616280000000000161e+00 7.772660000000000124e+00 7.174999999999999822e+00 1.308400000000000118e-01 7.772660000000000124e+00 8.968709999999999738e+00 4.142369999999999663e+00 1.000126999999999988e+01 8.968719999999999359e+00 6.975599999999999579e-01 1.222987000000000002e+01 1.399999999999999877e-04 6.627810000000000201e+00 1.000126999999999988e+01 1.499999999999999869e-04 8.153900000000000148e+00 1.222987999999999964e+01 1.793860000000000010e+00 7.587159999999999904e+00 7.772660000000000124e+00 1.499999999999999869e-04 5.101729999999999876e+00 7.772660000000000124e+00 1.793860000000000010e+00 9.113260000000000360e+00 1.000126999999999988e+01 1.793860000000000010e+00 5.668449999999999989e+00 1.222987000000000002e+01 3.587569999999999926e+00 6.627810000000000201e+00 1.000126999999999988e+01 3.587579999999999991e+00 8.153900000000000148e+00 1.222987999999999964e+01 5.381289999999999907e+00 7.587159999999999904e+00 7.772660000000000124e+00 3.587579999999999991e+00 5.101729999999999876e+00 7.772660000000000124e+00 5.381280000000000285e+00 9.113260000000000360e+00 1.000126999999999988e+01 5.381289999999999907e+00 5.668449999999999989e+00 1.222987000000000002e+01 7.174999999999999822e+00 6.627810000000000201e+00 1.000126999999999988e+01 7.175010000000000332e+00 8.153900000000000148e+00 1.222987999999999964e+01 8.968719999999999359e+00 7.587159999999999904e+00 7.772660000000000124e+00 7.174999999999999822e+00 5.101729999999999876e+00 7.772660000000000124e+00 8.968709999999999738e+00 9.113260000000000360e+00 1.000126999999999988e+01 8.968719999999999359e+00 5.668449999999999989e+00 1.222987000000000002e+01 1.399999999999999877e-04 1.159869999999999912e+01 1.000126999999999988e+01 1.499999999999999869e-04 1.312479000000000084e+01 1.222987999999999964e+01 1.793860000000000010e+00 1.255804999999999971e+01 7.772660000000000124e+00 1.499999999999999869e-04 1.007262000000000057e+01 7.772660000000000124e+00 1.793860000000000010e+00 1.408413999999999966e+01 1.000126999999999988e+01 1.793860000000000010e+00 1.063934000000000069e+01 1.222987000000000002e+01 3.587569999999999926e+00 1.159869999999999912e+01 1.000126999999999988e+01 3.587579999999999991e+00 1.312479000000000084e+01 1.222987999999999964e+01 5.381289999999999907e+00 1.255804999999999971e+01 7.772660000000000124e+00 3.587579999999999991e+00 1.007262000000000057e+01 7.772660000000000124e+00 5.381280000000000285e+00 1.408413999999999966e+01 1.000126999999999988e+01 5.381289999999999907e+00 1.063934000000000069e+01 1.222987000000000002e+01 7.174999999999999822e+00 1.159869999999999912e+01 1.000126999999999988e+01 7.175010000000000332e+00 1.312479000000000084e+01 1.222987999999999964e+01 8.968719999999999359e+00 1.255804999999999971e+01 7.772660000000000124e+00 7.174999999999999822e+00 1.007262000000000057e+01 7.772660000000000124e+00 8.968709999999999738e+00 1.408413999999999966e+01 1.000126999999999988e+01 8.968719999999999359e+00 1.063934000000000069e+01 1.222987000000000002e+01 1.399999999999999877e-04 1.656930000000000014e+00 1.667747999999999919e+01 1.499999999999999869e-04 3.183009999999999895e+00 1.890607999999999933e+01 1.793860000000000010e+00 2.616280000000000161e+00 1.444886999999999944e+01 1.499999999999999869e-04 1.308400000000000118e-01 1.444886999999999944e+01 1.793860000000000010e+00 4.142369999999999663e+00 1.667747999999999919e+01 1.793860000000000010e+00 6.975599999999999579e-01 1.890607999999999933e+01 3.587569999999999926e+00 1.656930000000000014e+00 1.667747999999999919e+01 3.587579999999999991e+00 3.183009999999999895e+00 1.890607999999999933e+01 5.381289999999999907e+00 2.616280000000000161e+00 1.444886999999999944e+01 3.587579999999999991e+00 1.308400000000000118e-01 1.444886999999999944e+01 5.381280000000000285e+00 4.142369999999999663e+00 1.667747999999999919e+01 5.381289999999999907e+00 6.975599999999999579e-01 1.890607999999999933e+01 7.174999999999999822e+00 1.656930000000000014e+00 1.667747999999999919e+01 7.175010000000000332e+00 3.183009999999999895e+00 1.890607999999999933e+01 8.968719999999999359e+00 2.616280000000000161e+00 1.444886999999999944e+01 7.174999999999999822e+00 1.308400000000000118e-01 1.444886999999999944e+01 8.968709999999999738e+00 4.142369999999999663e+00 1.667747999999999919e+01 8.968719999999999359e+00 6.975599999999999579e-01 1.890607999999999933e+01 1.399999999999999877e-04 6.627810000000000201e+00 1.667747999999999919e+01 1.499999999999999869e-04 8.153900000000000148e+00 1.890607999999999933e+01 1.793860000000000010e+00 7.587159999999999904e+00 1.444886999999999944e+01 1.499999999999999869e-04 5.101729999999999876e+00 1.444886999999999944e+01 1.793860000000000010e+00 9.113260000000000360e+00 1.667747999999999919e+01 1.793860000000000010e+00 5.668449999999999989e+00 1.890607999999999933e+01 3.587569999999999926e+00 6.627810000000000201e+00 1.667747999999999919e+01 3.587579999999999991e+00 8.153900000000000148e+00 1.890607999999999933e+01 5.381289999999999907e+00 7.587159999999999904e+00 1.444886999999999944e+01 3.587579999999999991e+00 5.101729999999999876e+00 1.444886999999999944e+01 5.381280000000000285e+00 9.113260000000000360e+00 1.667747999999999919e+01 5.381289999999999907e+00 5.668449999999999989e+00 1.890607999999999933e+01 7.174999999999999822e+00 6.627810000000000201e+00 1.667747999999999919e+01 7.175010000000000332e+00 8.153900000000000148e+00 1.890607999999999933e+01 8.968719999999999359e+00 7.587159999999999904e+00 1.444886999999999944e+01 7.174999999999999822e+00 5.101729999999999876e+00 1.444886999999999944e+01 8.968709999999999738e+00 9.113260000000000360e+00 1.667747999999999919e+01 8.968719999999999359e+00 5.668449999999999989e+00 1.890607999999999933e+01 1.399999999999999877e-04 1.159869999999999912e+01 1.667747999999999919e+01 1.499999999999999869e-04 1.312479000000000084e+01 1.890607999999999933e+01 1.793860000000000010e+00 1.255804999999999971e+01 1.444886999999999944e+01 1.499999999999999869e-04 1.007262000000000057e+01 1.444886999999999944e+01 1.793860000000000010e+00 1.408413999999999966e+01 1.667747999999999919e+01 1.793860000000000010e+00 1.063934000000000069e+01 1.890607999999999933e+01 3.587569999999999926e+00 1.159869999999999912e+01 1.667747999999999919e+01 3.587579999999999991e+00 1.312479000000000084e+01 1.890607999999999933e+01 5.381289999999999907e+00 1.255804999999999971e+01 1.444886999999999944e+01 3.587579999999999991e+00 1.007262000000000057e+01 1.444886999999999944e+01 5.381280000000000285e+00 1.408413999999999966e+01 1.667747999999999919e+01 5.381289999999999907e+00 1.063934000000000069e+01 1.890607999999999933e+01 7.174999999999999822e+00 1.159869999999999912e+01 1.667747999999999919e+01 7.175010000000000332e+00 1.312479000000000084e+01 1.890607999999999933e+01 8.968719999999999359e+00 1.255804999999999971e+01 1.444886999999999944e+01 7.174999999999999822e+00 1.007262000000000057e+01 1.444886999999999944e+01 8.968709999999999738e+00 1.408413999999999966e+01 1.667747999999999919e+01 8.968719999999999359e+00 1.063934000000000069e+01 1.890607999999999933e+01