-2.758129759949999880e+03
-2.758096296979999806e+03
-2.757996694380000008e+03
-2.757831665929999872e+03
-2.757602332800000113e+03
