6.999999999999999387e-05 -5.369999999999999774e-03 -7.411000000000000053e-03 -8.799999999999999771e-05 -5.359000000000000048e-03 -7.368999999999999682e-03 -7.499999999999999343e-05 5.595000000000000147e-03 7.804000000000000173e-03 6.000000000000000152e-05 5.347000000000000190e-03 7.772000000000000262e-03 -2.570000000000000127e-04 -5.308000000000000218e-03 -7.536000000000000164e-03 -1.600000000000000131e-04 -5.174999999999999913e-03 -7.630999999999999762e-03 3.399999999999999973e-05 5.550000000000000246e-03 7.856999999999999401e-03 5.300000000000000078e-05 5.348999999999999588e-03 7.592999999999999923e-03 -3.499999999999999693e-05 -5.465000000000000240e-03 -7.545999999999999756e-03 3.899999999999999929e-05 -5.326000000000000005e-03 -7.524000000000000306e-03 -6.999999999999999387e-05 5.752000000000000168e-03 7.651999999999999948e-03 -1.459999999999999981e-04 5.436999999999999993e-03 7.633000000000000028e-03 5.099999999999999960e-05 -5.089999999999999906e-03 -7.551000000000000420e-03 -4.000000000000000327e-05 -5.218999999999999681e-03 -7.342999999999999701e-03 -1.949999999999999965e-04 5.727000000000000320e-03 7.967000000000000123e-03 -6.600000000000000506e-05 5.520999999999999866e-03 8.123999999999999277e-03 1.000000000000000082e-05 -5.070999999999999987e-03 -7.472999999999999608e-03 3.999999999999999819e-06 -5.165000000000000320e-03 -7.407999999999999655e-03 2.649999999999999903e-04 5.642000000000000313e-03 7.934000000000000080e-03 2.400000000000000061e-04 5.681000000000000286e-03 7.912999999999999895e-03 -2.820000000000000241e-04 -4.909000000000000169e-03 -7.747999999999999679e-03 -1.800000000000000113e-04 -5.035999999999999678e-03 -7.544000000000000358e-03 -1.600000000000000131e-04 5.746000000000000239e-03 7.767999999999999731e-03 -2.329999999999999986e-04 5.571000000000000431e-03 7.896999999999999506e-03 -2.420000000000000005e-04 -5.259999999999999919e-03 -7.453999999999999689e-03 -1.630000000000000047e-04 -5.302000000000000289e-03 -7.428999999999999840e-03 -1.399999999999999979e-05 5.543000000000000184e-03 7.683999999999999858e-03 -9.299999999999999727e-05 5.557000000000000307e-03 7.848000000000000809e-03 1.459999999999999981e-04 -5.355999999999999650e-03 -7.337999999999999905e-03 7.299999999999999903e-05 -5.584000000000000422e-03 -7.344999999999999966e-03 3.300000000000000253e-05 5.642000000000000313e-03 7.583000000000000330e-03 2.579999999999999828e-04 5.453000000000000382e-03 7.767999999999999731e-03 -1.050000000000000044e-04 -5.269000000000000246e-03 -7.401999999999999726e-03 -1.279999999999999942e-04 -5.572999999999999829e-03 -7.305999999999999994e-03 -1.190000000000000058e-04 5.549000000000000113e-03 7.538000000000000429e-03 -2.239999999999999966e-04 5.427000000000000400e-03 7.779999999999999589e-03 -9.100000000000000287e-05 -5.209000000000000088e-03 -7.412000000000000186e-03 -8.799999999999999771e-05 -5.154999999999999860e-03 -7.337999999999999905e-03 6.999999999999999387e-05 5.844000000000000236e-03 7.635000000000000293e-03 -9.399999999999999448e-05 5.601000000000000076e-03 7.877000000000000321e-03 -9.000000000000000567e-05 -5.349999999999999721e-03 -7.366000000000000152e-03 -1.350000000000000017e-04 -5.316999999999999678e-03 -7.200999999999999936e-03 -2.999999999999999737e-04 5.846999999999999767e-03 7.697999999999999982e-03 4.399999999999999886e-05 5.401000000000000419e-03 7.976999999999999716e-03 -3.000000000000000076e-05 -5.296999999999999625e-03 -7.370999999999999948e-03 3.000000000000000076e-05 -5.290999999999999696e-03 -7.255000000000000164e-03 1.359999999999999989e-04 5.619999999999999996e-03 7.807999999999999836e-03 -3.999999999999999819e-06 5.513999999999999804e-03 7.844000000000000278e-03 6.399999999999999710e-05 -5.193999999999999832e-03 -7.355999999999999692e-03 -4.399999999999999886e-05 -5.485000000000000292e-03 -7.386000000000000204e-03 5.800000000000000034e-05 5.455999999999999912e-03 7.715999999999999769e-03 -5.700000000000000314e-05 5.559999999999999838e-03 7.721999999999999698e-03 -3.310000000000000225e-04 -5.190000000000000169e-03 -7.395999999999999797e-03 -2.919999999999999961e-04 -5.328000000000000271e-03 -7.540999999999999960e-03 -5.800000000000000034e-05 5.636999999999999650e-03 7.603999999999999648e-03 -2.739999999999999923e-04 5.713000000000000196e-03 7.690999999999999920e-03 3.100000000000000135e-05 -5.240999999999999999e-03 -7.331999999999999976e-03 1.520000000000000084e-04 -5.453000000000000382e-03 -7.467999999999999812e-03 -1.090000000000000067e-04 5.830000000000000113e-03 7.493999999999999793e-03 2.709999999999999735e-04 5.584000000000000422e-03 7.782999999999999988e-03 -5.399999999999999798e-05 -5.295000000000000227e-03 -7.535000000000000031e-03 2.900000000000000017e-05 -5.315000000000000280e-03 -7.444000000000000096e-03 -1.029999999999999964e-04 5.521999999999999999e-03 7.853000000000000605e-03 1.610000000000000103e-04 5.349999999999999721e-03 7.882999999999999383e-03 -9.100000000000000287e-05 -5.303000000000000422e-03 -7.569000000000000207e-03 -1.330000000000000073e-04 -5.342999999999999659e-03 -7.488999999999999997e-03 4.800000000000000122e-05 5.330999999999999801e-03 7.974000000000000185e-03 1.800000000000000046e-05 5.407000000000000348e-03 7.712000000000000105e-03 -8.799999999999999771e-05 -5.094999999999999703e-03 -7.748999999999999812e-03 -1.200000000000000030e-04 -5.343999999999999792e-03 -7.518999999999999642e-03 -5.899999999999999754e-05 5.400000000000000286e-03 7.827999999999999889e-03 -2.280000000000000126e-04 5.448999999999999851e-03 7.755999999999999873e-03 -4.500000000000000283e-05 -5.401999999999999684e-03 -7.322999999999999649e-03 9.600000000000000243e-05 -5.501999999999999946e-03 -7.406000000000000257e-03 -1.289999999999999914e-04 5.771000000000000088e-03 7.654000000000000213e-03 -3.600000000000000091e-05 5.478000000000000230e-03 7.898999999999999772e-03 -9.000000000000000228e-06 -5.271999999999999777e-03 -7.302000000000000331e-03 -1.599999999999999928e-05 -5.412000000000000144e-03 -7.356999999999999824e-03 5.700000000000000314e-05 5.623000000000000394e-03 7.736999999999999954e-03 1.190000000000000058e-04 5.597000000000000412e-03 7.865999999999999728e-03 -1.430000000000000064e-04 -5.296000000000000360e-03 -7.289999999999999605e-03 -2.959999999999999849e-04 -5.373000000000000172e-03 -7.457000000000000087e-03 -4.000000000000000327e-05 5.607000000000000005e-03 7.785000000000000253e-03 -1.440000000000000036e-04 5.584000000000000422e-03 7.808999999999999969e-03 -2.649999999999999903e-04 -5.172999999999999647e-03 -7.693000000000000185e-03 -1.069999999999999988e-04 -5.141999999999999869e-03 -7.654000000000000213e-03 1.200000000000000030e-05 5.584999999999999687e-03 7.792999999999999580e-03 -1.169999999999999979e-04 5.505000000000000344e-03 7.700000000000000247e-03 1.649999999999999991e-04 -5.374999999999999570e-03 -7.551999999999999685e-03 2.139999999999999975e-04 -5.279999999999999971e-03 -7.329999999999999710e-03 -1.559999999999999972e-04 5.680000000000000153e-03 7.758000000000000139e-03 3.600000000000000091e-05 5.414000000000000409e-03 7.948000000000000204e-03 -1.160000000000000007e-04 -5.232999999999999804e-03 -7.494999999999999926e-03 -2.889999999999999774e-04 -5.194999999999999965e-03 -7.441999999999999831e-03 3.600000000000000091e-05 5.468999999999999903e-03 8.078999999999999376e-03 4.699999999999999724e-05 5.416999999999999940e-03 7.870000000000000259e-03 -2.159999999999999919e-04 -5.022999999999999687e-03 -7.524000000000000306e-03 -9.899999999999999404e-05 -5.255000000000000122e-03 -7.389999999999999868e-03 1.200000000000000030e-04 5.616000000000000332e-03 7.903000000000000302e-03 9.000000000000000228e-06 5.533999999999999857e-03 7.886999999999999914e-03 1.699999999999999987e-05 -5.019000000000000024e-03 -7.533999999999999898e-03 -6.000000000000000152e-06 -5.331999999999999934e-03 -7.232999999999999846e-03 -7.600000000000000418e-05 5.547999999999999980e-03 7.851000000000000340e-03 -1.990000000000000124e-04 5.615000000000000199e-03 8.021999999999999617e-03 -1.399999999999999979e-05 -5.226999999999999875e-03 -7.216000000000000192e-03 -1.000000000000000048e-04 -5.374999999999999570e-03 -7.215000000000000059e-03 -1.649999999999999991e-04 5.812999999999999591e-03 7.872999999999999790e-03 1.499999999999999869e-04 5.449999999999999983e-03 8.125999999999999543e-03 1.340000000000000045e-04 -4.479999999999999933e-04 2.069999999999999900e-04 3.209999999999999963e-04 -3.050999999999999893e-03 -5.322999999999999607e-03 2.049999999999999956e-04 2.178999999999999947e-03 5.225999999999999743e-03 -1.230000000000000082e-04 1.752000000000000085e-03 4.906999999999999904e-03 6.899999999999999667e-05 3.739999999999999835e-04 5.730000000000000501e-04 -2.139999999999999975e-04 -3.402000000000000076e-03 -5.712000000000000063e-03 -1.500000000000000038e-05 -4.339999999999999782e-04 -1.699999999999999987e-05 -3.249999999999999851e-04 -2.893999999999999871e-03 -5.510000000000000141e-03 2.190000000000000106e-04 2.537000000000000192e-03 4.723999999999999901e-03 1.410000000000000120e-04 1.833999999999999910e-03 4.811000000000000172e-03 1.340000000000000045e-04 6.239999999999999887e-04 4.199999999999999768e-05 6.099999999999999872e-05 -3.997999999999999818e-03 -5.786999999999999610e-03 4.899999999999999842e-05 -5.220000000000000031e-04 -4.290000000000000193e-04 1.299999999999999920e-05 -3.161999999999999880e-03 -6.021999999999999575e-03 -3.669999999999999760e-04 2.455999999999999850e-03 4.950000000000000407e-03 -2.329999999999999986e-04 1.691999999999999928e-03 4.704999999999999981e-03 -9.000000000000000228e-06 4.749999999999999990e-04 -2.000000000000000164e-05 1.910000000000000077e-04 -3.828999999999999938e-03 -5.629000000000000323e-03 -9.899999999999999404e-05 9.160000000000000390e-04 6.729999999999999871e-04 -3.499999999999999693e-05 -2.517000000000000140e-03 -5.285999999999999900e-03 7.100000000000000462e-05 3.540000000000000178e-03 5.557000000000000307e-03 -5.220000000000000031e-04 2.907999999999999995e-03 5.419000000000000206e-03 1.259999999999999998e-04 5.609999999999999752e-04 3.789999999999999966e-04 1.430000000000000064e-04 -2.358999999999999986e-03 -4.996999999999999706e-03 3.890000000000000228e-04 9.680000000000000019e-04 6.689999999999999983e-04 2.970000000000000092e-04 -2.566999999999999837e-03 -5.107000000000000428e-03 6.800000000000000488e-04 3.523000000000000090e-03 5.073000000000000252e-03 7.069999999999999462e-04 2.952000000000000197e-03 5.159000000000000391e-03 3.559999999999999797e-04 3.789999999999999966e-04 9.399999999999999448e-05 -1.259999999999999998e-04 -2.145000000000000205e-03 -5.608000000000000138e-03 -1.550000000000000000e-04 9.479999999999999495e-04 1.469999999999999953e-04 -3.579999999999999741e-04 -2.279000000000000210e-03 -5.317999999999999811e-03 -7.249999999999999500e-04 3.518999999999999993e-03 4.840999999999999817e-03 -2.559999999999999884e-04 3.232000000000000064e-03 4.764000000000000005e-03 -3.350000000000000113e-04 5.779999999999999548e-04 1.900000000000000105e-04 9.600000000000000243e-05 -2.219000000000000052e-03 -5.418000000000000073e-03 -3.649999999999999816e-04 -4.209999999999999875e-04 9.500000000000000523e-05 -2.090000000000000115e-04 -3.892000000000000060e-03 -5.638999999999999915e-03 -9.699999999999999963e-05 2.390999999999999896e-03 5.066000000000000190e-03 -5.630000000000000239e-04 2.890000000000000208e-03 5.289000000000000298e-03 6.999999999999999387e-05 -7.820000000000000345e-04 -2.489999999999999809e-04 1.700000000000000122e-04 -3.284000000000000027e-03 -5.310999999999999749e-03 4.099999999999999912e-04 -5.919999999999999698e-04 1.600000000000000131e-04 1.900000000000000105e-04 -4.044999999999999984e-03 -5.768999999999999823e-03 3.829999999999999854e-04 2.409999999999999816e-03 4.882000000000000055e-03 5.569999999999999864e-04 2.824999999999999820e-03 5.152000000000000329e-03 1.700000000000000122e-04 -1.054999999999999948e-03 -5.749999999999999903e-04 2.919999999999999961e-04 -3.333000000000000025e-03 -5.069999999999999854e-03 1.999999999999999909e-06 -7.870000000000000476e-04 -5.000000000000000409e-06 1.759999999999999954e-04 -4.342999999999999639e-03 -5.499000000000000415e-03 -3.559999999999999797e-04 2.132999999999999913e-03 4.811000000000000172e-03 2.099999999999999884e-05 2.586000000000000191e-03 4.897999999999999576e-03 -6.499999999999999431e-05 -1.044000000000000006e-03 -3.589999999999999984e-04 -4.809999999999999823e-04 -3.086999999999999900e-03 -5.333000000000000067e-03 1.369999999999999961e-04 -1.500000000000000038e-05 7.269999999999999987e-04 7.799999999999999859e-05 -2.541999999999999989e-03 -5.977999999999999807e-03 -1.510000000000000112e-04 3.152999999999999987e-03 6.192999999999999720e-03 -2.300000000000000002e-05 2.135000000000000179e-03 6.154999999999999881e-03 1.800000000000000046e-05 5.389999999999999826e-04 7.619999999999999820e-04 3.199999999999999855e-05 -2.939000000000000206e-03 -6.474999999999999853e-03 -1.399999999999999877e-04 -1.160000000000000007e-04 6.750000000000000357e-04 -2.130000000000000003e-04 -2.628999999999999827e-03 -5.942000000000000233e-03 -2.660000000000000146e-04 2.690000000000000117e-03 6.296999999999999646e-03 -1.489999999999999897e-04 1.953000000000000092e-03 6.250000000000000347e-03 -2.039999999999999984e-04 3.480000000000000020e-04 8.210000000000000067e-04 9.000000000000000567e-05 -2.945999999999999834e-03 -6.130000000000000032e-03 2.159999999999999919e-04 -3.899999999999999929e-04 6.960000000000000041e-04 7.799999999999999859e-05 -2.795999999999999874e-03 -5.590999999999999616e-03 3.080000000000000055e-04 2.576000000000000165e-03 6.150000000000000085e-03 1.700000000000000122e-04 1.631000000000000071e-03 6.402999999999999838e-03 4.470000000000000232e-04 3.049999999999999868e-04 8.490000000000000368e-04 -1.920000000000000049e-04 -2.743000000000000212e-03 -6.170000000000000137e-03 3.339999999999999870e-04 2.460000000000000164e-04 4.760000000000000234e-04 3.759999999999999779e-04 -3.387999999999999953e-03 -6.009999999999999717e-03 1.910000000000000077e-04 3.334999999999999857e-03 5.692000000000000011e-03 2.719999999999999979e-04 3.233000000000000197e-03 5.943000000000000366e-03 2.290000000000000098e-04 -9.799999999999999684e-05 -2.509999999999999753e-04 -1.559999999999999972e-04 -2.628000000000000128e-03 -6.105000000000000183e-03 -2.410000000000000033e-04 3.950000000000000061e-04 3.849999999999999798e-04 -3.750000000000000078e-04 -3.099000000000000192e-03 -6.232999999999999825e-03 -2.180000000000000134e-04 3.840000000000000097e-03 5.388000000000000428e-03 -3.209999999999999963e-04 3.540999999999999877e-03 5.840999999999999838e-03 -2.280000000000000126e-04 3.099999999999999999e-04 -4.270000000000000249e-04 -1.600000000000000131e-04 -2.962999999999999922e-03 -5.705000000000000002e-03 5.000000000000000240e-05 3.680000000000000003e-04 5.389999999999999826e-04 6.700000000000000226e-05 -3.317000000000000070e-03 -6.143000000000000023e-03 2.000000000000000164e-05 3.703999999999999827e-03 5.555000000000000042e-03 -1.800000000000000046e-05 3.601000000000000034e-03 5.852999999999999696e-03 1.879999999999999890e-04 2.380000000000000117e-04 -2.410000000000000033e-04 3.559999999999999797e-04 -2.884999999999999978e-03 -5.599999999999999943e-03 4.100000000000000047e-05 -3.499999999999999964e-04 1.399999999999999877e-04 1.849999999999999973e-04 -3.217999999999999940e-03 -6.621000000000000149e-03 1.090000000000000067e-04 2.249999999999999830e-03 6.092000000000000193e-03 -1.240000000000000054e-04 2.648999999999999879e-03 5.760000000000000363e-03 8.899999999999999491e-05 -4.949999999999999973e-04 3.280000000000000038e-04 2.320000000000000014e-04 -3.311999999999999840e-03 -6.231999999999999693e-03 1.459999999999999981e-04 -2.519999999999999996e-04 -1.029999999999999964e-04 1.099999999999999971e-05 -3.285000000000000159e-03 -6.421999999999999757e-03 2.840000000000000185e-04 1.815999999999999906e-03 5.965999999999999949e-03 3.159999999999999832e-04 2.575000000000000032e-03 5.729999999999999850e-03 7.100000000000000462e-05 -7.669999999999999951e-04 2.310000000000000042e-04 -2.300000000000000070e-04 -2.798000000000000140e-03 -6.644999999999999865e-03 -1.079999999999999960e-04 -2.739999999999999923e-04 -3.570000000000000040e-04 -2.200000000000000078e-04 -3.115999999999999846e-03 -6.581000000000000044e-03 -3.390000000000000001e-04 2.226000000000000114e-03 5.640000000000000048e-03 -1.830000000000000029e-04 2.965000000000000187e-03 5.400000000000000286e-03 -3.800000000000000209e-05 -4.739999999999999747e-04 2.239999999999999966e-04 1.840000000000000001e-04 -3.073999999999999910e-03 -6.655999999999999590e-03 3.199999999999999855e-05 -4.420000000000000101e-04 -6.319999999999999663e-04 -3.950000000000000061e-04 -3.229000000000000099e-03 -5.480999999999999761e-03 -7.399999999999999623e-05 3.188999999999999994e-03 4.938999999999999814e-03 -9.999999999999999547e-07 2.795000000000000175e-03 5.342000000000000394e-03 2.799999999999999958e-05 1.410000000000000120e-04 -1.430999999999999980e-03 1.459999999999999981e-04 -3.762000000000000153e-03 -5.009999999999999697e-03 2.239999999999999966e-04 -3.559999999999999797e-04 -5.590000000000000351e-04 5.829999999999999679e-04 -3.311999999999999840e-03 -5.237999999999999601e-03 8.399999999999999535e-05 3.203000000000000118e-03 5.203000000000000159e-03 9.299999999999999727e-05 2.655999999999999941e-03 5.218000000000000416e-03 2.300000000000000070e-04 3.739999999999999835e-04 -7.380000000000000492e-04 2.519999999999999996e-04 -3.567999999999999991e-03 -5.008000000000000299e-03 1.000000000000000082e-05 -1.440000000000000036e-04 -4.870000000000000197e-04 -1.210000000000000002e-04 -3.016000000000000018e-03 -5.200999999999999894e-03 -6.099999999999999872e-05 3.331999999999999892e-03 5.028000000000000351e-03 -1.240000000000000054e-04 2.955999999999999860e-03 5.348999999999999588e-03 -2.079999999999999872e-04 4.029999999999999837e-04 -1.041000000000000042e-03 -3.420000000000000188e-04 -3.690000000000000138e-03 -4.951999999999999805e-03 -1.890000000000000133e-04 4.150000000000000043e-04 -8.459999999999999638e-04 -6.350000000000000392e-04 -2.262999999999999821e-03 -5.405000000000000082e-03 -2.300000000000000070e-04 2.857999999999999863e-03 5.017999999999999891e-03 -8.799999999999999771e-05 3.040000000000000167e-03 4.814999999999999836e-03 6.799999999999999946e-05 2.079999999999999872e-04 -5.789999999999999791e-04 3.049999999999999868e-04 -2.331000000000000173e-03 -5.584999999999999687e-03 2.020000000000000040e-04 5.249999999999999676e-04 -6.780000000000000002e-04 7.150000000000000322e-04 -2.272999999999999847e-03 -5.193999999999999832e-03 -1.990000000000000124e-04 2.834000000000000147e-03 5.513999999999999804e-03 -1.990000000000000124e-04 3.034999999999999937e-03 5.117000000000000021e-03 2.139999999999999975e-04 2.180000000000000134e-04 1.359999999999999989e-04 7.119999999999999593e-04 -2.337999999999999801e-03 -5.144000000000000135e-03 -1.900000000000000105e-05 6.019999999999999961e-04 4.899999999999999842e-05 -1.250000000000000026e-04 -2.363000000000000083e-03 -4.728999999999999697e-03 3.420000000000000188e-04 2.616999999999999969e-03 5.316000000000000413e-03 1.789999999999999870e-04 2.825999999999999953e-03 5.186999999999999771e-03 -2.099999999999999884e-05 3.020000000000000223e-04 2.700000000000000035e-04 -6.160000000000000111e-04 -2.255000000000000060e-03 -5.159000000000000391e-03 1.599999999999999928e-05 -3.209999999999999963e-04 3.069999999999999812e-04 -1.090000000000000067e-04 -3.442000000000000181e-03 -5.028000000000000351e-03 1.859999999999999945e-04 2.769000000000000194e-03 5.416999999999999940e-03 1.869999999999999917e-04 2.507999999999999813e-03 5.283000000000000369e-03 4.100000000000000047e-05 -5.029999999999999749e-04 -8.399999999999999535e-05 4.800000000000000122e-05 -2.275000000000000112e-03 -5.289000000000000298e-03 7.899999999999999579e-05 -2.579999999999999828e-04 1.289999999999999914e-04 3.370000000000000057e-04 -3.380000000000000192e-03 -4.883000000000000188e-03 -1.230000000000000082e-04 2.952000000000000197e-03 5.408999999999999746e-03 -2.100000000000000087e-04 2.546000000000000086e-03 5.265999999999999848e-03 2.139999999999999975e-04 -3.539999999999999853e-04 8.700000000000000051e-05 4.060000000000000024e-04 -2.838999999999999944e-03 -4.690999999999999857e-03 2.099999999999999884e-05 -1.740000000000000010e-04 7.470000000000000511e-04 -1.699999999999999987e-05 -3.652999999999999997e-03 -4.738000000000000024e-03 -7.999999999999999638e-06 3.066999999999999848e-03 5.543000000000000184e-03 -7.700000000000000139e-05 2.791000000000000078e-03 5.604999999999999739e-03 -8.700000000000000051e-05 -3.820000000000000153e-04 1.369999999999999961e-04 -4.670000000000000214e-04 -2.704999999999999939e-03 -4.732000000000000095e-03