-5.134910868071340246e+02 1.504740371390828535e-03 1.424487551583317755e-03 1.504740371390828535e-03 3.045633634944693426e+02 4.681361655665092769e+01 1.424487551583317755e-03 4.681361655665092769e+01 1.712433264628319876e+02
-5.132941463873263501e+02 1.294076719396112553e-02 2.939259525450084801e-02 1.294076719396112553e-02 3.042088867893795054e+02 4.694681617432645027e+01 2.939259525450084801e-02 4.694681617432645027e+01 1.713449465959132567e+02
-5.132795203109163822e+02 3.410744841819211837e-02 6.145359676760143997e-02 3.410744841819211837e-02 3.036079336114559055e+02 4.702871417694001366e+01 6.145359676760143997e-02 4.702871417694001366e+01 1.711658423653078387e+02
-5.122930727130474224e+02 6.667003005508964630e-02 1.137182456672428815e-01 6.667003005508964630e-02 3.039446142537534001e+02 4.706639287583963949e+01 1.137182456672428815e-01 4.706639287583963949e+01 1.718870945201229006e+02
-5.114712637750135968e+02 1.045493610042347588e-01 1.703566732463936695e-01 1.045493610042347588e-01 3.041137069450878130e+02 4.702875430334992046e+01 1.703566732463936695e-01 4.702875430334992046e+01 1.723731858496969949e+02
