3.812000439884351451e-03 2.155000397397872219e-03 1.092179999768057297e-01 3.766000025894701564e-03 -3.979997159375928020e-04 -7.620000203902229123e-04 3.796000160218817709e-03 -1.882999709685159598e-03 3.225999980927513056e-03 -3.779999750316332969e-04 -3.840000293254074550e-04 -7.379999975299260991e-04 2.407000041959215034e-03 -6.749998196031182498e-04 -1.647000012612050536e-03 3.072700103872045424e-02 -1.557099770124776260e-02 -2.516700015405509347e-02 3.230699889566172184e-02 1.648700246918767889e-02 2.582999980520155059e-02 1.988999934733635955e-03 9.550001516881634518e-04 1.260999988067080472e-03 4.450000135799139691e-04 -1.299999656662975493e-04 6.789999976735182439e-04 1.297000110643355998e-03 -1.481999902168258405e-03 -2.610000056789176241e-04 3.220000162153569857e-04 -1.619999749298629604e-04 7.179999983844244848e-04 1.316999913694255793e-03 1.211000100560971062e-03 9.569999915207108489e-04 1.039999461474665042e-04 6.360000068247151188e-04 -1.042000001209350286e-03 -3.399999686668281817e-04 -3.670000250670143039e-04 6.480000022433385744e-04 1.739999787700588832e-04 3.380000139437821941e-04 7.849999987019248534e-04 -2.580000018707359166e-04 -6.000002067230237240e-05 -1.160999998515944640e-03 5.772997595392870621e-03 3.218800044200232496e-02 5.394999935982037684e-03 -1.069439999502667799e-01 7.899919316094488513e-04 1.983400058952631412e-02 6.160000265890922672e-03 -2.284999517274544176e-03 1.686199996828012179e-02 -2.742999993644908846e-03 1.464999813746362210e-03 2.122400001367761094e-02 5.220001360374939897e-04 -4.149999415832972684e-04 1.895899999753316786e-02 2.445000417373396819e-03 -4.022999794615023279e-03 2.049199999052243176e-02 2.580999742263525871e-03 4.765000213775797550e-03 1.859499998099360674e-02 3.470000355098055230e-04 1.002000046383052416e-03 2.016199999708373491e-02 -7.839998460306339635e-04 -6.240000399718454837e-04 1.934400000495086619e-02 -5.379998681676440540e-04 -2.000000195698238797e-04 2.114300000316945635e-02 -2.005999843840648462e-03 -6.550001324199889114e-04 1.931600001172709483e-02 -5.789996800528666304e-04 -2.717000023077200104e-03 2.073600000590994363e-02 2.767000118184544805e-02 -1.531599790305950524e-02 4.255999862564391334e-03 3.039000070697063689e-03 3.510002474375662255e-04 1.761699998287455382e-02 -9.699978241232516598e-05 -1.466999988038828135e-03 1.931900000200077738e-02 -2.473299896637701570e-02 -1.348900186812985839e-02 2.436000149996430005e-03 -1.614499974213076325e-02 -7.073001271188116001e-03 -5.019399990381688548e-02 7.424000508217102126e-03 -7.323999446790647322e-03 -8.279000033663636016e-03 -4.060001147578750800e-04 9.999948664310878130e-06 -2.065299999776892825e-02 2.309300087443219573e-02 -1.433199829138179227e-02 -3.795400011315412658e-02 -2.065000032155128815e-03 -8.320001733821341195e-04 -1.722499998777043267e-02 -4.573000067224822739e-03 -6.490003669045013015e-04 -2.107099997410942852e-02 -1.969999968640707196e-03 -1.996000170634267077e-03 -2.166699998713212533e-02 3.110999939087233032e-03 -7.309997857416238639e-04 -2.105100001644209101e-02 -1.366999945132468417e-03 -2.231000123991388247e-03 -2.062799999022586414e-02 7.799998460448866796e-04 5.020000380021992113e-04 -2.101300000480692265e-02 6.229998751319711786e-04 1.420000264648714548e-04 -2.067600000358071205e-02 -1.267000334313910870e-03 2.881999883122128049e-03 -2.107799999588510359e-02 -1.014000215386732465e-03 1.445999904124487196e-03 -1.920799999584724138e-02 -3.300022408668630244e-05 1.458999976921340151e-03 -2.060600000127520495e-02 2.207999785819470245e-03 1.431000147818162855e-03 -1.919500001361723260e-02 -3.200226868528736017e-05 2.725399996003796330e-02 -3.758400002704674614e-02
3.807000439669077675e-03 2.155000396980764465e-03 1.091789999768333352e-01 3.766000025894701564e-03 -3.979997159375928020e-04 -7.620000203902229123e-04 3.794000159883177507e-03 -1.878999709842413485e-03 3.219999980934557405e-03 -3.789999751072635242e-04 -3.830000294010376879e-04 -7.379999975254050845e-04 2.405000041818994468e-03 -6.729998197523809648e-04 -1.645000012603008458e-03 3.071000103824624017e-02 -1.556399770252348859e-02 -2.515700015396824668e-02 3.228899889643292720e-02 1.647600246781534550e-02 2.581899980531189923e-02 1.985999934949486765e-03 9.520001514592750730e-04 1.258999988086636612e-03 4.430000137256546533e-04 -1.319999658185569608e-04 6.779999976865557507e-04 1.296000110567725825e-03 -1.480999902243888529e-03 -2.610000056743966637e-04 3.210000161397267042e-04 -1.609999750054932205e-04 7.179999983889454995e-04 1.317999913736766842e-03 1.210000100630607934e-03 9.509999915161900137e-04 1.029999463042468710e-04 6.340000067500837968e-04 -1.041000001201832946e-03 -3.399999688992387894e-04 -3.640000250680132149e-04 6.470000022403419237e-04 1.719999788456891732e-04 3.370000137925217095e-04 7.849999987139635090e-04 -2.550000020440758644e-04 -5.800002044940710805e-05 -1.164999998534501941e-03 5.769997596992145622e-03 3.216700044177743523e-02 5.396999936019573896e-03 -1.069049999501171799e-01 7.869919345450447721e-04 1.982000058931403588e-02 6.158000265981465431e-03 -2.286999517436792261e-03 1.685099996829316285e-02 -2.741999993408625932e-03 1.460999813810006081e-03 2.121200001367608626e-02 5.240001359988550244e-04 -4.149999414390288821e-04 1.895199999752212802e-02 2.443000417155897792e-03 -4.020999794778270034e-03 2.047999999053147849e-02 2.581999742553360132e-03 4.760000213835446220e-03 1.857899998099308073e-02 3.490000354159679820e-04 1.002000046517332156e-03 2.014499999707269548e-02 -7.859998463734417171e-04 -6.210000401440825268e-04 1.932300000495890818e-02 -5.359998686876639050e-04 -1.940000194305498875e-04 2.113100000315242671e-02 -2.008999843988036604e-03 -6.540001326598650399e-04 1.930300001174265617e-02 -5.749996804547450420e-04 -2.713000022792658953e-03 2.071800000588387008e-02 2.765400118113165925e-02 -1.530699790427558250e-02 4.249999862643719442e-03 3.042000070414974198e-03 3.540002476544681529e-04 1.760699998285499696e-02 -9.699978269993434941e-05 -1.463999988049815692e-03 1.930800000199777919e-02 -2.471799896713883574e-02 -1.347900186699640436e-02 2.435000149903643850e-03 -1.613299974245207061e-02 -7.067001270256579974e-03 -5.016999990388910924e-02 7.424000508239181687e-03 -7.323999446786652254e-03 -8.275000033663635485e-03 -4.050001146325661128e-04 8.999948748931029205e-06 -2.064399999777344688e-02 2.307900087384535601e-02 -1.432299829242363563e-02 -3.793700011308583780e-02 -2.058000032057419153e-03 -8.330001728487268411e-04 -1.722099998780807217e-02 -4.574000067099514254e-03 -6.500003669711417039e-04 -2.106199997410291083e-02 -1.962999968476759286e-03 -1.997000170088873618e-03 -2.165099998716976670e-02 3.112999939147951221e-03 -7.309997855793757193e-04 -2.104000001645313020e-02 -1.365999945108741388e-03 -2.230000123897778533e-03 -2.060999999023238258e-02 7.779998461867552442e-04 5.010000378629253948e-04 -2.100100000479488208e-02 6.189998750524688129e-04 1.440000261753358012e-04 -2.066300000356062830e-02 -1.262000334393413668e-03 2.883999883513264657e-03 -2.106499999591470232e-02 -1.011000215034532678e-03 1.441999904360367858e-03 -1.919899999585980566e-02 -3.300022402044803458e-05 1.458999976933326656e-03 -2.059400000127520683e-02 2.202999785728928291e-03 1.433000147450999139e-03 -1.918400001359163096e-02 -3.100226737584584833e-05 2.723799996013157032e-02 -3.756600002703628510e-02
3.802000439308638770e-03 2.154000396523702426e-03 1.090999999768619277e-01 3.765000025900221755e-03 -3.979997160122241838e-04 -7.610000203847029979e-04 3.790000159942248648e-03 -1.879999710147930948e-03 3.216999980957635334e-03 -3.789999751072635242e-04 -3.830000294010376879e-04 -7.379999975254050845e-04 2.404000041986814086e-03 -6.749998198250146443e-04 -1.642000012595491070e-03 3.067300103699528713e-02 -1.554599770530183320e-02 -2.513700015378199371e-02 3.224799889797536068e-02 1.645400246469252634e-02 2.579699980556018901e-02 1.985999935100747280e-03 9.500001514592750244e-04 1.258999988088634362e-03 4.470000136555442750e-04 -1.309999655150370591e-04 6.789999976634774476e-04 1.295000110584285146e-03 -1.480999902316522268e-03 -2.580000056688767549e-04 3.200000160530568050e-04 -1.599999750831212586e-04 7.159999983934664655e-04 1.315999913893547198e-03 1.208000100480346355e-03 9.519999915292274607e-04 1.059999461474664986e-04 6.360000069759756333e-04 -1.042000001220390066e-03 -3.399999688937189535e-04 -3.640000250670143394e-04 6.480000022403419480e-04 1.719999786944286587e-04 3.390000137925217039e-04 7.849999987119657581e-04 -2.580000022008562335e-04 -5.600002067729676090e-05 -1.165999998519940154e-03 5.769997599543142362e-03 3.213400044178742893e-02 5.406999936052537571e-03 -1.068459999500580987e-01 7.859919390042333000e-04 1.981700058898936204e-02 6.160000266040534765e-03 -2.287999517288528181e-03 1.684799996828311927e-02 -2.738999993091192822e-03 1.455999814025909318e-03 2.120100001366452200e-02 5.240001359657359007e-04 -4.149999414450221348e-04 1.894599999752212896e-02 2.444000417030588873e-03 -4.019999794711630499e-03 2.047099999052495733e-02 2.580999742789642781e-03 4.756000213747828276e-03 1.856699998100259583e-02 3.500000355009902191e-04 1.000000046580975860e-03 2.013299999706917587e-02 -7.839998465633411968e-04 -6.190000399998140919e-04 1.931600000494586994e-02 -5.359998688665236532e-04 -1.920000194355442704e-04 2.112600000315042678e-02 -2.008999844334716754e-03 -6.500001326678560547e-04 1.929500001173865831e-02 -5.749996808400638804e-04 -2.709000022807642096e-03 2.070300000587987216e-02 2.763000117998781063e-02 -1.529099790607872482e-02 4.261999862760213788e-03 3.043000070381855424e-03 3.540002477241051574e-04 1.760099998284947453e-02 -9.699978273857333617e-05 -1.463999988056807929e-03 1.930100000199777913e-02 -2.469599896819600973e-02 -1.346400186531855440e-02 2.449000149767223584e-03 -1.610799974324206990e-02 -7.054001268330862585e-03 -5.013499990404009232e-02 7.421000507975299490e-03 -7.319999447006551342e-03 -8.268000033651070821e-03 -4.030001144906976136e-04 7.999948912178069012e-06 -2.063199999778348934e-02 2.305200087267169143e-02 -1.430499829443169016e-02 -3.790300011295477667e-02 -2.045000031564998821e-03 -8.390001718585412974e-04 -1.721399998787383895e-02 -4.568000067011196083e-03 -6.500003665013781530e-04 -2.104599997413602805e-02 -1.948999968982444066e-03 -1.989000169012070281e-03 -2.163299998725503465e-02 3.117999939295340063e-03 -7.319997851882390763e-04 -2.102700001647973133e-02 -1.362999945059062846e-03 -2.230000123661897773e-03 -2.060099999024894366e-02 7.749998462529935272e-04 5.010000376480211286e-04 -2.098900000477832428e-02 6.169998750485967531e-04 1.450000260370606919e-04 -2.065000000355058860e-02 -1.258000334056125647e-03 2.880999883835763230e-03 -2.104499999593378509e-02 -1.006000214984854087e-03 1.441999904747508915e-03 -1.918999999588740304e-02 -3.300022372731900171e-05 1.455999976945313197e-03 -2.058200000127220763e-02 2.199999785778606904e-03 1.433000147233098355e-03 -1.917500001357507269e-02 -3.200226531397388466e-05 2.721299996008690741e-02 -3.753500002700579236e-02
3.794000439024407603e-03 2.149000395798795083e-03 1.089799999769110739e-01 3.761000025841151288e-03 -3.969997163117485622e-04 -7.580000203636224568e-04 3.787000159455347799e-03 -1.873999710380815044e-03 3.210999980968201606e-03 -3.799999753396741562e-04 -3.800000294776668562e-04 -7.389999975228818451e-04 2.402000041754403809e-03 -6.719998199772739614e-04 -1.643000012587447723e-03 3.062600103525357428e-02 -1.552099770882948461e-02 -2.511000015354753270e-02 3.219599889977615287e-02 1.642800246072979170e-02 2.576699980587319333e-02 1.983999935333158327e-03 9.470001513090134208e-04 1.259999988102670793e-03 4.410000137957651345e-04 -1.329999659708163480e-04 6.769999976985942736e-04 1.293000110329795308e-03 -1.477999902472777087e-03 -2.630000056608337226e-04 3.210000160530567751e-04 -1.599999750074910013e-04 7.159999983879465754e-04 1.316999913725727146e-03 1.210000100552979926e-03 9.489999915217097468e-04 1.029999463853969777e-04 6.330000067510827564e-04 -1.040000001200833829e-03 -3.349999689914285954e-04 -3.630000246928585307e-04 6.440000022117437417e-04 1.699999789213194360e-04 3.360000136412611706e-04 7.849999987260020563e-04 -2.560000021086664200e-04 -5.700002052303962397e-05 -1.162999998529980986e-03 5.773997602007468512e-03 3.210200044209793324e-02 5.414999936062421353e-03 -1.067989999501889331e-01 7.869919425488666612e-04 1.980700058872893188e-02 6.164000266046055186e-03 -2.287999516985008384e-03 1.684899996826104071e-02 -2.734999993054201915e-03 1.454999814321437978e-03 2.119400001364344158e-02 5.270001359381366315e-04 -4.149999412231257403e-04 1.894099999750556776e-02 2.446000416980910128e-03 -4.019999794569358888e-03 2.046199999051391896e-02 2.585999742789643011e-03 4.756000214125979779e-03 1.856699998097499638e-02 3.500000353331701427e-04 1.002000046577979173e-03 2.012999999706717447e-02 -7.839998466019802107e-04 -6.190000400068062202e-04 1.930900000494586988e-02 -5.369998687428625050e-04 -1.940000195161689265e-04 2.112100000315794701e-02 -2.006999844292205789e-03 -6.510001325225888173e-04 1.928900001172861867e-02 -5.729996811701842030e-04 -2.705000022661375753e-03 2.069800000586483751e-02 2.760200117882740875e-02 -1.527499790818738143e-02 4.270999862898786428e-03 3.046000070365295718e-03 3.540002479479993028e-04 1.759799998283291533e-02 -9.599978298202369975e-05 -1.460999987984174442e-03 1.929800000198926557e-02 -2.466199896949664017e-02 -1.344600186273613683e-02 2.460000149561568806e-03 -1.607999974395256382e-02 -7.043001266191240180e-03 -5.011299990420563233e-02 7.425000507980819911e-03 -7.319999446703031980e-03 -8.267000033673151116e-03 -4.000001144906976491e-04 7.999949139068842502e-06 -2.063199999780004901e-02 2.303000087170670174e-02 -1.429099829607857579e-02 -3.788600011284733171e-02 -2.026000031253086080e-03 -8.440001704335530364e-04 -1.722599998797372245e-02 -4.563000067151417455e-03 -6.480003661212291755e-04 -2.104399997416562737e-02 -1.928999969737098816e-03 -1.978000167485480937e-03 -2.161899998737642006e-02 3.115999939149599173e-03 -7.299997853385006667e-04 -2.102600001647068895e-02 -1.360999945036983237e-03 -2.230000123506641757e-03 -2.059699999025998290e-02 7.769998464263334339e-04 4.990000378032770963e-04 -2.098500000478736860e-02 6.159998749840061433e-04 1.460000259634281828e-04 -2.064800000354606591e-02 -1.255000334131755940e-03 2.881999884062653918e-03 -2.104499999595134396e-02 -1.005000214828073767e-03 1.439999904824138324e-03 -1.918899999589092700e-02 -3.200022364064902803e-05 1.454999977022941073e-03 -2.058000000127672979e-02 2.195999786016537576e-03 1.430000146932575112e-03 -1.917300001354999353e-02 -3.000226309696927827e-05 2.718499996025615026e-02 -3.751700002698886427e-02
3.787000438770576731e-03 2.139000395086589155e-03 1.087969999769597129e-01 3.755000025711969971e-03 -3.949997167615346095e-04 -7.540000203325010952e-04 3.779000159282007529e-03 -1.871999710989852772e-03 3.206999981010363095e-03 -3.799999756145958974e-04 -3.760000294726724358e-04 -7.339999975268773338e-04 2.397000041560631931e-03 -6.689998203494320304e-04 -1.637000012562845296e-03 3.054200103117061041e-02 -1.546299771512748590e-02 -2.505500015314179874e-02 3.210599890313041438e-02 1.638000245387312079e-02 2.571699980641792282e-02 1.977999935344198178e-03 9.470001508572296282e-04 1.261999988135789966e-03 4.410000131796833504e-04 -1.249999659728141214e-04 6.749999976906033297e-04 1.290000110178534613e-03 -1.475999902699668027e-03 -2.630000056462719117e-04 3.180000162043172709e-04 -1.619999752343817404e-04 7.159999984065038882e-04 1.313999913899067474e-03 1.208000100330084824e-03 9.529999915402670484e-04 9.999994646654711988e-05 6.320000065251908357e-04 -1.039000001183275476e-03 -3.379999683698269399e-04 -3.710000249167527079e-04 6.470000022362943802e-04 1.699999790836196766e-04 3.340000136432589271e-04 7.869999987279998558e-04 -2.510000020921068992e-04 -5.700002014189170448e-05 -1.159999998557580255e-03 5.772997606309002334e-03 3.204600044203428921e-02 5.426999936123878994e-03 -1.067059999508806478e-01 7.959919495804828379e-04 1.980500058820659423e-02 6.159000265623745633e-03 -2.282999517371150661e-03 1.684099996828364310e-02 -2.729999992904588290e-03 1.451999814685605043e-03 2.118000001361883614e-02 5.290001361319082197e-04 -4.179999410778585515e-04 1.893499999749752652e-02 2.454000416947790982e-03 -4.019999793970310299e-03 2.045599999046975731e-02 2.579999743081123897e-03 4.752000213670200604e-03 1.856499998101211399e-02 3.510000351267110767e-04 1.004000046643620508e-03 2.011999999705965658e-02 -7.909998465760287008e-04 -6.200000405452079245e-04 1.930000000498550972e-02 -5.349998685120995650e-04 -1.980000193778937547e-04 2.110800000315089797e-02 -2.000999844028324062e-03 -6.550001320757992823e-04 1.928200001169949607e-02 -5.739996817658343841e-04 -2.698000022748992671e-03 2.068600000586336488e-02 2.755500117711715685e-02 -1.525099791172302571e-02 4.289999863134248172e-03 3.044000070007575956e-03 3.580002477867500225e-04 1.758799998283996219e-02 -8.999978303722226518e-05 -1.460999987540381653e-03 1.928800000195614664e-02 -2.460999897129908034e-02 -1.342100185878738333e-02 2.476000149249564432e-03 -1.603099974520960647e-02 -7.022001262425425078e-03 -5.005299990449708913e-02 7.426000507344305765e-03 -7.310999446619410175e-03 -8.259000033687661016e-03 -3.960001144614506020e-04 8.999949460568533026e-06 -2.061299999782312611e-02 2.298900087013444962e-02 -1.426699829913546588e-02 -3.784200011264498426e-02 -1.998000030622092745e-03 -8.530001683248956057e-04 -1.723499998811928863e-02 -4.551000067398740592e-03 -6.440003652036773449e-04 -2.103399997423586326e-02 -1.902999970879297150e-03 -1.961000165493123615e-03 -2.159299998753691843e-02 3.117999938957475778e-03 -7.259997851672626542e-04 -2.100600001648572634e-02 -1.356999944981784672e-03 -2.230000123194132190e-03 -2.058699999028206287e-02 7.779998468116524051e-04 4.950000378938906051e-04 -2.097000000478889056e-02 6.159998752826550527e-04 1.430000259764135722e-04 -2.063500000354306918e-02 -1.254000333908737155e-03 2.879999884151270267e-03 -2.103199999595486286e-02 -1.003000214437234881e-03 1.435999904991380749e-03 -1.917299999589797133e-02 -3.000022300635997815e-05 1.447999977193180484e-03 -2.056100000128077698e-02 2.194999786320706026e-03 1.427000146870929147e-03 -1.915900001354147938e-02 -3.200225863536077100e-05 2.712899996014584217e-02 -3.747600002692188376e-02
3.781000435733914734e-03 2.162000394398070919e-03 1.085619999769698585e-01 3.733000024300946879e-03 -3.769997184343901989e-04 -7.630000202290440322e-04 3.775000158383836572e-03 -1.860999711304360364e-03 3.194999981021454626e-03 -3.839999755168862312e-04 -3.770000297711979874e-04 -7.299999975037990176e-04 2.392000040772858209e-03 -6.579998207195922625e-04 -1.629000012546233606e-03 3.046000102915726385e-02 -1.543199772126923469e-02 -2.499500015272013501e-02 3.199499890846597278e-02 1.630500244541722987e-02 2.565599980710554437e-02 1.984999936425100968e-03 9.330001513906369158e-04 1.265999988111135089e-03 4.360000136152576570e-04 -1.319999663679462980e-04 6.579999977251946037e-04 1.286000109774431983e-03 -1.469999902993199140e-03 -2.540000056301857105e-04 3.160000157450158428e-04 -1.559999753866411472e-04 7.149999984115503913e-04 1.328999912567546248e-03 1.224000101442563378e-03 9.309999914414872390e-04 1.109999474442205706e-04 6.190000073561247994e-04 -1.040000001231008477e-03 -3.469999681611434482e-04 -3.750000256144058407e-04 6.300000022899685881e-04 1.779999789086319714e-04 3.350000142303211970e-04 7.689999986828421809e-04 -2.660000008654631520e-04 -7.300002127334888553e-05 -1.156999998458800583e-03 5.776997612388670017e-03 3.196700044235579324e-02 5.445999936180711057e-03 -1.065879999501519459e-01 7.859919584998589000e-04 1.980000058756524114e-02 6.166000266027847794e-03 -2.288999516850728343e-03 1.683199996825100048e-02 -2.725999992599843248e-03 1.445999814961156397e-03 2.115300001360275253e-02 5.290001358332593103e-04 -4.149999410908439138e-04 1.892199999749452979e-02 2.453000416464762301e-03 -4.014999794064919719e-03 2.043699999047028301e-02 2.586999743186577799e-03 4.749000214177637180e-03 1.854299998097647117e-02 3.590000347783834592e-04 1.007000047226687487e-03 2.009799999701250561e-02 -7.829998459080437416e-04 -6.300000399561479000e-04 1.928400000495133701e-02 -5.309998688714668430e-04 -1.950000190993458264e-04 2.108400000312582109e-02 -2.009999844769714411e-03 -6.460001327674593343e-04 1.927100001174018515e-02 -5.729996813357799302e-04 -2.705000022691342234e-03 2.066800000586483527e-02 2.750200117382419276e-02 -1.520599791571145172e-02 4.309999863381849643e-03 3.057000069642688573e-03 3.610002487449714449e-04 1.756299998276520530e-02 -8.499978273634896636e-05 -1.465999987176214636e-03 1.927400000193353960e-02 -2.455699897424536496e-02 -1.338000185475100856e-02 2.504000148916058453e-03 -1.597699974787932659e-02 -6.984001258304432629e-03 -5.001599990483311664e-02 7.423000506539972204e-03 -7.299999446841305868e-03 -8.254000033682087553e-03 -3.860001144504109582e-04 8.999950218868861684e-06 -2.061099999787832648e-02 2.293100086775399366e-02 -1.423099830346009030e-02 -3.778000011236079536e-02 -1.962000029066976459e-03 -8.740001656081995652e-04 -1.724099998829702399e-02 -4.557000066624229857e-03 -6.530003656404778992e-04 -2.101699997419375146e-02 -1.862999971532946922e-03 -1.949000162421964761e-03 -2.154699998776970007e-02 3.130999939844606849e-03 -7.369997841740804972e-04 -2.099600001654649759e-02 -1.347999944072573921e-03 -2.241000122499474910e-03 -2.057299999032075402e-02 7.879998470512304285e-04 4.930000386661751366e-04 -2.095400000484209241e-02 6.059998736684680523e-04 1.650000252291008442e-04 -2.062600000350984716e-02 -1.251000333691238428e-03 2.877999884390147062e-03 -2.101999999596942947e-02 -1.008000214295366390e-03 1.434999904625216052e-03 -1.916099999586937455e-02 -1.800022293460189443e-05 1.447999978113728844e-03 -2.054800000134701654e-02 2.186999787012418577e-03 1.418000146267884730e-03 -1.915700001348833240e-02 -3.100225345279325034e-05 2.706499996028340072e-02 -3.741400002686347953e-02
