3.493799894202057749e-02 1.577200266677445881e-02 2.443199979139300954e-02 3.599200127477054229e-02 -1.853299730087689529e-02 -2.298700018015846155e-02 1.726000061249464155e-03 -8.769998703811395001e-04 -9.200000086512559547e-04 5.871999765686240248e-03 2.984000442538620873e-03 -1.564000035393238756e-03 3.485800123152709568e-02 -1.788699738562575178e-02 -2.197000017454421930e-02 3.588299890205789294e-02 1.637900273932084080e-02 2.550899978557042910e-02 5.909999763969400743e-03 3.004000445375611984e-03 -1.601000035622970928e-03 1.656000059004283367e-03 -8.459998756572778642e-04 -9.020000082958311684e-04 1.365000080193032013e-03 -1.074999896965469440e-03 -2.010000064608105175e-04 -1.159999637572881525e-04 -4.560000084554657906e-04 3.180000010957908618e-04 1.112999866070756494e-03 1.795000084507099823e-03 3.309999920634175874e-04 7.110000186500240599e-04 -2.789999466703873610e-04 -4.440000036459307298e-04 -1.139999680913633033e-04 -4.030000083631390495e-04 2.590000010318107659e-04 1.376000082207449885e-03 -1.101999896138530777e-03 -2.060000064945592506e-04 7.310000170297404525e-04 -2.539999451088372526e-04 -3.950000037812997152e-04 1.076999867633040642e-03 1.775000081793400497e-03 3.399999922821099496e-04 -1.010009992445630028e-01 -7.678007607109184687e-03 3.165800056518029704e-02 1.452299969589901374e-02 4.351001102896138832e-03 4.522999915489027238e-03 -1.607999876789243353e-03 -1.830001018217069933e-04 1.981400000905872080e-02 4.381999905697541407e-03 2.964000354912356937e-03 2.352699997285132363e-02 2.155000415985030074e-03 -3.940999815676777575e-03 2.136399999204128403e-02 3.642999724986458084e-03 5.023000294499674334e-03 1.899999997487381020e-02 7.400000927970057461e-04 2.730000764953078316e-04 2.055199999564261484e-02 5.130002059519001749e-04 -1.275999941395943070e-03 1.982799999844287939e-02 -2.219999326946722686e-04 5.940000035192461109e-04 2.033200000063207363e-02 -2.359999739787747765e-03 -1.966000158306093360e-03 2.020400001499065082e-02 -1.508000052615175030e-03 2.133999905634432169e-03 1.970700000619233713e-02 -1.041999833613100690e-03 -6.990000582638241809e-04 2.056600000644990406e-02 -1.781999934648366988e-03 4.869998837180885653e-04 1.851200000934993123e-02 -1.213999933758436135e-03 7.389999302860151631e-04 2.212600000596293484e-02 3.267000015745995592e-03 1.265000267246378304e-03 2.018499998070305557e-02 7.500031133953488920e-05 -2.657999974365168709e-03 1.998500000224102263e-02 -1.010759995445361659e-01 -6.480007650668857637e-03 -6.271999435602367869e-03 4.820999681633263145e-03 2.976000347731445114e-03 -1.690100002958387984e-02 -1.603000095004039399e-03 -2.490001418351404558e-04 -2.062299999090294947e-02 1.404499947836423263e-02 4.289001026531092178e-03 -3.573600008181054832e-02 -1.753000170904522306e-03 6.539998454438659004e-04 -2.200099999097695699e-02 1.950000793964461741e-04 -2.540000005647160847e-03 -2.041799999853922271e-02 3.253999792817243320e-03 1.266000225935528080e-03 -2.018800001922618770e-02 -1.275000160236867486e-03 7.899998853868653824e-04 -1.820499999375129602e-02 -2.150001548720654164e-04 5.819999636790483804e-04 -2.008299999939457819e-02 -1.095000047478909529e-03 -8.190001026158663915e-04 -1.982299999313767713e-02 -1.505000278830218941e-03 2.173999865472734955e-03 -2.072699999386417441e-02 -2.363999960517703443e-03 -1.994000198935272881e-03 -2.016799998495930057e-02 2.095000198226157784e-03 -4.004999860496301356e-03 -1.896300000756359627e-02 4.669999811180562698e-04 -1.251999985232558248e-03 -2.057500000132717749e-02 7.579998674486617067e-04 3.030000374880415263e-04 -1.986200000448671080e-02 3.650999514811043446e-03 4.858000254813020849e-03 -2.133700002500553417e-02
3.491599894288398981e-02 1.576000266510259665e-02 2.442399979152643300e-02 3.596500127363221749e-02 -1.851699730290592982e-02 -2.297400018002540914e-02 1.723000061114763129e-03 -8.749998706050337053e-04 -9.170000086366940709e-04 5.861999766005320488e-03 2.980000441785314938e-03 -1.561000035334044822e-03 3.483100123054003183e-02 -1.787299738765478485e-02 -2.195700017440916849e-02 3.585799890296381687e-02 1.636600273741609449e-02 2.549499978572140890e-02 5.904999764369630276e-03 2.999000445001456187e-03 -1.597000035590377112e-03 1.653000058712802154e-03 -8.419998758821708963e-04 -9.000000082832670598e-04 1.363000080122921814e-03 -1.073999897115731055e-03 -2.000000064507696969e-04 -1.129999639786590833e-04 -4.530000082275761246e-04 3.190000010762346979e-04 1.108999866151906544e-03 1.794000084205577645e-03 3.319999920864958850e-04 7.090000184987634967e-04 -2.769999468216478812e-04 -4.440000036368887547e-04 -1.149999681725134073e-04 -4.020000084397682121e-04 2.580000010363317020e-04 1.373000082364230325e-03 -1.103999896364422830e-03 -2.050000064760019406e-04 7.270000170407802439e-04 -2.539999454093605307e-04 -3.930000037592203230e-04 1.078999867946601283e-03 1.771000081946658665e-03 3.419999922750657198e-04 -1.009359992454021138e-01 -7.668007602208201830e-03 3.164300056481151452e-02 1.451299969595256506e-02 4.350001102135841492e-03 4.518999915545223942e-03 -1.602999876774331657e-03 -1.840001014545433343e-04 1.980300000903212343e-02 4.379999905544633074e-03 2.965000354747112515e-03 2.351299997286136409e-02 2.155000415459490393e-03 -3.934999815689762918e-03 2.135099999203528970e-02 3.639999725152630750e-03 5.020000294261796510e-03 1.898899997489336341e-02 7.390000925463878359e-04 2.750000764016977562e-04 2.053399999564613568e-02 5.150002058470229621e-04 -1.275999941263661298e-03 1.980899999843184142e-02 -2.189999326427691879e-04 5.920000037281569674e-04 2.031400000061751171e-02 -2.358999739616055979e-03 -1.969000158240451822e-03 2.019400001498812547e-02 -1.509000052627862496e-03 2.132999905542819988e-03 1.969100000619885757e-02 -1.038999833695898427e-03 -6.990000580519165410e-04 2.055100000643334326e-02 -1.779999934871385591e-03 4.889998838563635849e-04 1.849900000933689392e-02 -1.207999933566312328e-03 7.349999307198192087e-04 2.210600000593381312e-02 3.265000015522977108e-03 1.267000267082132132e-03 2.017199998071209435e-02 8.100031097629544527e-05 -2.653999973922374807e-03 1.997400000220390937e-02 -1.010159995445140818e-01 -6.480007646127047133e-03 -6.267999435933559009e-03 4.818999681856282399e-03 2.974000347593170040e-03 -1.688800002957084254e-02 -1.605000095260754019e-03 -2.440001419644256971e-04 -2.060099999089690798e-02 1.403699947841003867e-02 4.290001025948025730e-03 -3.571400008176739416e-02 -1.753000170827244278e-03 6.539998454578501569e-04 -2.198699999097695687e-02 2.030000792689127783e-04 -2.537000005024138850e-03 -2.039999999858638224e-02 3.257999793370382549e-03 1.260000226256028939e-03 -2.017000001924227487e-02 -1.265000159792477926e-03 7.849998861551545559e-04 -1.819299999380150079e-02 -2.140001546435269311e-04 5.799999637686628455e-04 -2.006899999939809956e-02 -1.097000047569451735e-03 -8.170001027561393358e-04 -1.981199999312863516e-02 -1.506000278660750901e-03 2.172999865414085123e-03 -2.070999999385765566e-02 -2.358999960348235475e-03 -1.995000198540139869e-03 -2.015099998498590117e-02 2.096000197785064141e-03 -3.997999860404688813e-03 -1.894700000757610844e-02 4.669999811362635480e-04 -1.250999985215577341e-03 -2.055800000132817704e-02 7.559998673967586232e-04 3.050000373547608187e-04 -1.984400000447766876e-02 3.653999514801651183e-03 4.859000255051897608e-03 -2.132500002502309144e-02
3.488199894400575291e-02 1.574400266251519201e-02 2.440799979173008741e-02 3.592900127234262969e-02 -1.849899730561563316e-02 -2.296100017984466918e-02 1.724000061173833849e-03 -8.759998705324000988e-04 -9.200000086412150500e-04 5.861999765999800598e-03 2.980000441784315737e-03 -1.562000035334044738e-03 3.479800122930951783e-02 -1.785599739014059537e-02 -2.194700017424399546e-02 3.582099890415569449e-02 1.634900273460079476e-02 2.547799978594262466e-02 5.902999764439741462e-03 2.998000444849196772e-03 -1.598000035578338697e-03 1.655000058782912569e-03 -8.429998757319092815e-04 -9.010000082933079888e-04 1.364000080193032097e-03 -1.074999897041099698e-03 -2.010000064552906816e-04 -1.129999639085486755e-04 -4.540000082285749702e-04 3.180000010772335490e-04 1.108999866216497021e-03 1.793000084203579978e-03 3.299999920874947660e-04 7.100000185688738882e-04 -2.779999467470164695e-04 -4.450000036414096852e-04 -1.149999681780332702e-04 -4.020000084407670876e-04 2.570000010363317319e-04 1.374000082283080093e-03 -1.102999896289791424e-03 -2.060000064825206762e-04 7.290000169596301451e-04 -2.529999452590989215e-04 -3.940000037712588945e-04 1.078999867859931463e-03 1.772000081944660830e-03 3.399999922740668500e-04 -1.009029992457212005e-01 -7.664007599715399327e-03 3.164000056462536875e-02 1.451499969602267591e-02 4.349001102286102240e-03 4.517999915535184097e-03 -1.599999876726300669e-03 -1.850001012326469370e-04 1.979800000901656143e-02 4.384999905528074067e-03 2.965000355122267284e-03 2.350999997283376511e-02 2.158000415588671745e-03 -3.936999815466867697e-03 2.134699999202073137e-02 3.641999725152630582e-03 5.020000294413056591e-03 1.898899997488232363e-02 7.390000923675280877e-04 2.770000763967033191e-04 2.052899999564413575e-02 5.160002058415029879e-04 -1.275999941189029808e-03 1.980799999842632053e-02 -2.189999326648486128e-04 5.920000037241614655e-04 2.031000000061751465e-02 -2.356999739638135274e-03 -1.969000158093186809e-03 2.019000001497708516e-02 -1.507000052644422118e-03 2.132999905691083768e-03 1.968800000618781826e-02 -1.038999833793608244e-03 -6.980000580559122354e-04 2.054700000643234353e-02 -1.772999934806795269e-03 4.879998843837777189e-04 1.849700000929925189e-02 -1.196999933075539382e-03 7.279999315447599571e-04 2.209900000588008520e-02 3.267000015522976940e-03 1.267000267233392647e-03 2.017199998070105457e-02 9.400031037125332366e-05 -2.645999972939181051e-03 1.997400000212416066e-02 -1.009829995445842149e-01 -6.479007643630249960e-03 -6.266999436116713583e-03 4.823999681920872890e-03 2.973000347969323442e-03 -1.689000002959744132e-02 -1.603000095266273860e-03 -2.440001418141640580e-04 -2.060199999090794529e-02 1.404099947861097743e-02 4.288001026259535831e-03 -3.570500008178747325e-02 -1.746000170794125093e-03 6.539998459932553189e-04 -2.198099999101559704e-02 2.150000787245890982e-04 -2.529000004105588263e-03 -2.038899999866061047e-02 3.259999793370382381e-03 1.260000226407289453e-03 -2.017000001925331465e-02 -1.254000159360775567e-03 7.789998869830918465e-04 -1.819699999385622838e-02 -2.140001545458172490e-04 5.789999637726583230e-04 -2.006499999939709983e-02 -1.097000047704152796e-03 -8.150001027531426608e-04 -1.980899999313063403e-02 -1.504000278644191399e-03 2.172999865568342372e-03 -2.070699999386869591e-02 -2.356999960272605169e-03 -1.996000198388879487e-03 -2.015099998499594175e-02 2.099000197860694146e-03 -3.998999860177798391e-03 -1.894700000759166891e-02 4.679999811362635181e-04 -1.250999985139947084e-03 -2.055800000133369693e-02 7.559998672399782186e-04 3.070000373537619376e-04 -1.984500000447966817e-02 3.656999514753620558e-03 4.860000255283782565e-03 -2.132000002504064878e-02
3.482399894596333034e-02 1.571600265809966826e-02 2.437899979207821047e-02 3.586600126993679666e-02 -1.846499731035037076e-02 -2.293100017953088321e-02 1.722000061114763213e-03 -8.749998706806639626e-04 -9.170000086311741808e-04 5.854999766318882103e-03 2.976000441257900791e-03 -1.559000035291410258e-03 3.474100122718412620e-02 -1.782599739442555092e-02 -2.192100017395932562e-02 3.576299890610222521e-02 1.632100273018327607e-02 2.544699978629074572e-02 5.894999764753302077e-03 2.994000444246153018e-03 -1.596000035530184243e-03 1.654000058788432544e-03 -8.429998758065406633e-04 -9.000000082877880744e-04 1.363000079960621520e-03 -1.071999897117728758e-03 -2.020000064527674422e-04 -1.119999638329184210e-04 -4.550000081529447372e-04 3.180000010727125886e-04 1.107999866373277510e-03 1.791000084128948656e-03 3.309999920950123771e-04 7.070000184176133008e-04 -2.759999469739072469e-04 -4.450000036268478743e-04 -1.139999680968831528e-04 -4.030000083641379249e-04 2.580000010318107416e-04 1.372000082283080045e-03 -1.102999896441051939e-03 -2.060000064714809502e-04 7.240000169596301320e-04 -2.529999456372502621e-04 -3.940000037436596067e-04 1.078999868011191977e-03 1.770000081944660998e-03 3.399999922760646009e-04 -1.008359992460789029e-01 -7.660007594658161181e-03 3.163000056425153972e-02 1.451599969609278576e-02 4.348001102360735115e-03 4.516999915530663275e-03 -1.595999876787018929e-03 -1.850001009411135380e-04 1.978700000899448128e-02 4.390999905607575506e-03 2.963000355563063289e-03 2.349699997280264505e-02 2.161000415516913572e-03 -3.936999815252962415e-03 2.133399999200416911e-02 3.643999725270772021e-03 5.018000294558324671e-03 1.898299997487328319e-02 7.400000921445094599e-04 2.790000764593481898e-04 2.051599999563661833e-02 5.180002056996345318e-04 -1.274999941049755883e-03 1.979599999841428343e-02 -2.169999324821166693e-04 5.890000038674311203e-04 2.030200000060947141e-02 -2.353999739693333777e-03 -1.969000157876284792e-03 2.018000001496052589e-02 -1.505000052699620753e-03 2.132999905832355311e-03 1.967800000617677889e-02 -1.037999834016626764e-03 -6.960000579932673105e-04 2.053400000642482959e-02 -1.765999934861993675e-03 4.879998849032007651e-04 1.848700000926061307e-02 -1.173999932160232039e-03 7.139999332582852055e-04 2.207300000576711135e-02 3.271000015462258680e-03 1.267000267524926154e-03 2.016099998067897442e-02 1.170003093990996273e-04 -2.632999971197687392e-03 1.997600000198421905e-02 -1.009139995446598492e-01 -6.478007638411762727e-03 -6.266999436498582599e-03 4.829999682105251373e-03 2.971000348429098190e-03 -1.688400002962856319e-02 -1.597000095222114811e-03 -2.440001413523914837e-04 -2.059399999094106704e-02 1.404099947876940625e-02 4.287001026274519372e-03 -3.569000008178647293e-02 -1.738000170749966211e-03 6.539998466062883807e-04 -2.197299999105975510e-02 2.380000777761625565e-04 -2.515000002346114930e-03 -2.036899999880155410e-02 3.263999793425580945e-03 1.260000226719799237e-03 -2.016000001927539462e-02 -1.232000158394142226e-03 7.659998886439608893e-04 -1.819999999396467935e-02 -2.120001542637279341e-04 5.759999639339076277e-04 -2.005499999940514241e-02 -1.097000047735624149e-03 -8.140001027451517412e-04 -1.980099999313163217e-02 -1.501000278600032531e-03 2.172999865803224365e-03 -2.069899999388525452e-02 -2.353999960298557102e-03 -1.995000198152999029e-03 -2.014199998501350203e-02 2.102000197980483272e-03 -3.999999859942916097e-03 -1.893900000760723179e-02 4.689999811804223921e-04 -1.250999985056325823e-03 -2.055000000133921575e-02 7.569998670627661568e-04 3.100000374383820928e-04 -1.983600000448818013e-02 3.657999515122379534e-03 4.856000255371399447e-03 -2.130800002504217722e-02
3.473399894884337397e-02 1.567500265125298942e-02 2.433899979261595209e-02 3.577600126653286000e-02 -1.841699731711614330e-02 -2.289000017908204149e-02 1.715000060504201203e-03 -8.669998712110746613e-04 -9.180000086005261949e-04 5.849999766422111364e-03 2.975000440884743858e-03 -1.554000035262812027e-03 3.465600122459003979e-02 -1.778899740081715808e-02 -2.188400017352709961e-02 3.567999890955419334e-02 1.627200272386001428e-02 2.540099978679783918e-02 5.888999765229163685e-03 2.988000443796367048e-03 -1.592000035491071986e-03 1.648000058578101296e-03 -8.399998762573256160e-04 -8.970000082576656125e-04 1.363000079599029904e-03 -1.066999897114732226e-03 -1.990000064577618279e-04 -1.119999641464791625e-04 -4.510000081549424993e-04 3.160000010687170923e-04 1.108999866605688087e-03 1.788000084205577716e-03 3.319999920924891377e-04 7.090000183364633104e-04 -2.749999468236456377e-04 -4.460000036388865000e-04 -1.139999681945928349e-04 -4.020000083681334567e-04 2.540000010308118773e-04 1.378000082428820815e-03 -1.104999895988269427e-03 -2.070000065026023474e-04 7.210000168895196919e-04 -2.519999458631421341e-04 -3.930000037280989502e-04 1.083999868498092441e-03 1.764000082328805391e-03 3.459999922544585490e-04 -1.007579992466265256e-01 -7.654007588775982827e-03 3.161300056381500384e-02 1.451699969645437772e-02 4.343001102433368191e-03 4.513999915530137255e-03 -1.592999876750027721e-03 -1.860001007212149188e-04 1.978000000897892074e-02 4.399999905676039297e-03 2.961000356228752316e-03 2.348199997275496331e-02 2.163000415574336654e-03 -3.938999815118682940e-03 2.131699999199512460e-02 3.646999725555085791e-03 5.013000294768234222e-03 1.896599997486171987e-02 7.460000917757502207e-04 2.830000769011432166e-04 2.050399999559950753e-02 5.150002054931754770e-04 -1.272999941286635361e-03 1.978599999842884510e-02 -2.189999323860547249e-04 5.870000037061818025e-04 2.029200000062251000e-02 -2.354999739862801214e-03 -1.968000157968896342e-03 2.016300001496505040e-02 -1.496000052712307977e-03 2.131999906497046137e-03 1.966200000612809695e-02 -1.036999834184446816e-03 -6.940000579206336310e-04 2.053100000641731177e-02 -1.755999935036981494e-03 4.889998856415234954e-04 1.846900000920441431e-02 -1.147999931396185462e-03 7.019999351987010576e-04 2.204700000563558290e-02 3.275000015222680454e-03 1.269000267811465224e-03 2.014499998065489780e-02 1.500003081299446962e-04 -2.615999968698891863e-03 1.997900000178508273e-02 -1.008309995448000568e-01 -6.476007632132452924e-03 -6.264999436958727276e-03 4.837999682208481492e-03 2.970000349039134385e-03 -1.687900002967172505e-02 -1.593000095360687894e-03 -2.410001410338884556e-04 -2.057799999096613860e-02 1.404299947917680286e-02 4.283001026444758531e-03 -3.567100008179351772e-02 -1.729000170423718175e-03 6.509998473049404899e-04 -2.195499999110643585e-02 2.760000770231552558e-04 -2.502999999444196350e-03 -2.034099999902329314e-02 3.268999793329519128e-03 1.262000227107939326e-03 -2.015000001930498941e-02 -1.207000157270728081e-03 7.509998905327197475e-04 -1.820199999408769059e-02 -2.170001542676000669e-04 5.769999635687417467e-04 -2.004199999937854304e-02 -1.096000048036497275e-03 -8.090001026555371060e-04 -1.978699999314214794e-02 -1.493000278690574710e-03 2.174999866419253993e-03 -2.068799999393141492e-02 -2.351999960097617311e-03 -1.997000197992749009e-03 -2.013299998502254481e-02 2.105000197873381843e-03 -3.997999859708034273e-03 -1.893100000762578880e-02 4.669999811875900041e-04 -1.249999985192603181e-03 -2.053500000132917752e-02 7.629998666807426798e-04 3.160000379051489464e-04 -1.982300000452729555e-02 3.659999515339878561e-03 4.854000255534646202e-03 -2.129600002505121700e-02
3.463399895240631965e-02 1.562300264362303723e-02 2.427199979321987763e-02 3.564400126233176203e-02 -1.835699732703840320e-02 -2.282900017841335213e-02 1.722000060838193647e-03 -8.719998706896538773e-04 -9.260000086341708091e-04 5.830999767194974120e-03 2.965000439450765895e-03 -1.551000035147946047e-03 3.453700121976181758e-02 -1.772099740976022797e-02 -2.182700017293815950e-02 3.554299891369069875e-02 1.621300271343974198e-02 2.534199978761299266e-02 5.872999765909834961e-03 2.979000442586282604e-03 -1.592000035393764407e-03 1.643000057950979665e-03 -8.319998766394723182e-04 -9.010000082380573714e-04 1.362000080041771534e-03 -1.072999897192360164e-03 -2.010000064462487065e-04 -1.039999643181714080e-04 -4.480000075399116137e-04 3.260000010215616424e-04 1.096999866028245405e-03 1.796000083303009092e-03 3.369999921507363947e-04 7.100000187477337448e-04 -2.799999467420220866e-04 -4.400000036394119754e-04 -1.259999691021559021e-04 -3.900000092756965775e-04 2.540000010850636193e-04 1.374000081748148402e-03 -1.095999896290790346e-03 -2.070000064895128017e-04 7.190000174575705665e-04 -2.589999460074104737e-04 -3.860000037100670884e-04 1.074999868676952295e-03 1.762000081653127513e-03 3.509999923061350529e-04 -1.006389992473789574e-01 -7.645007579788966508e-03 3.160000056314914846e-02 1.450799969644885751e-02 4.343001101751696458e-03 4.512999915579816133e-03 -1.572999877162945849e-03 -1.820000992285873210e-04 1.976000000886452695e-02 4.406999905209569614e-03 2.966000356742182122e-03 2.346599997271132942e-02 2.171000415886249670e-03 -3.943999814525626750e-03 2.130499999195596336e-02 3.647999725571645160e-03 5.013000294846861431e-03 1.896899997485619951e-02 7.470000915731632744e-04 2.840000769537993084e-04 2.048099999559298626e-02 5.240002065889905409e-04 -1.287999940612955321e-03 1.977899999839415057e-02 -2.169999319670400269e-04 5.800000038374648545e-04 2.027200000061845850e-02 -2.338999739495689970e-03 -1.973000156760809556e-03 2.016100001488172269e-02 -1.502000052642197755e-03 2.130999906042265694e-03 1.966100000616221796e-02 -1.033999834992075772e-03 -6.850000577167169929e-04 2.050800000639176057e-02 -1.742999935723173709e-03 4.979998866237179663e-04 1.846800000912366541e-02 -1.096999930002792853e-03 6.799999390068993963e-04 2.199800000537604702e-02 3.273000015005181427e-03 1.271000267648218253e-03 2.013299998066394106e-02 1.900003061966770463e-04 -2.589999965667688989e-03 1.998500000153831738e-02 -1.007219995454752132e-01 -6.467007623887756004e-03 -6.263999437569381899e-03 4.843999682680470188e-03 2.965000349509897340e-03 -1.686200002969984874e-02 -1.584000095359040230e-03 -2.400001403392318594e-04 -2.056399999101681669e-02 1.405399947913759003e-02 4.286001027310652224e-03 -3.563700008185723828e-02 -1.710000170180267813e-03 6.479998487449120399e-04 -2.195199999120832010e-02 3.010000752720428286e-04 -2.476999997514484336e-03 -2.030199999918725837e-02 3.285999793238976625e-03 1.264000228404641053e-03 -2.013900001940082535e-02 -1.171000155040459369e-03 7.209998932484168021e-04 -1.820899999425643762e-02 -2.020001532386001984e-04 5.649999647251707910e-04 -2.001999999944935327e-02 -1.100000048090048286e-03 -8.080001029540626089e-04 -1.978299999312106358e-02 -1.497000278914170038e-03 2.179999866144701707e-03 -2.065999999391432765e-02 -2.348999959889510377e-03 -1.998000197741885142e-03 -2.010899998503810210e-02 2.108000197913668158e-03 -3.996999859460167309e-03 -1.891000000764334749e-02 4.769999821669111467e-04 -1.261999984423315194e-03 -2.052200000137238689e-02 7.629998672062823610e-04 3.100000379181344526e-04 -1.981000000452130122e-02 3.661999515741756576e-03 4.850000255703887028e-03 -2.127800002505825933e-02
