-2.060006129535786742e-04 -1.180001281153013625e-04 -1.126619999987450438e-01 -1.499815369824981394e-05 -2.305899998261421238e-02 1.854100002311588960e-02 1.860000170261170288e-04 -3.499999876418494150e-04 -1.711000000677086489e-03 2.499993602602918299e-05 9.320000030694284947e-04 1.179999998931050877e-03 -4.069999571235745264e-04 -4.500000291813127900e-04 1.602000002696075476e-03 -1.997700076874352887e-02 1.151799850765848274e-02 1.854500009876509231e-02 2.016599921566613815e-02 1.164400154258714640e-02 1.744699987705567584e-02 2.090000258105961307e-04 -3.049999836968334335e-04 4.969999991510076201e-04 2.079999844677853668e-04 1.210000145763915534e-04 -1.156000001268993934e-03 1.659999770804064458e-04 3.410000130740377779e-04 5.199999987430870864e-04 -2.120000350720896041e-04 3.389999822593037725e-04 -1.708999999168409794e-03 -1.560000225817280157e-04 3.349999887001184080e-04 4.990000005264738159e-04 -5.959999813142166777e-04 -1.300000434734346118e-04 1.604000003419687667e-03 3.810000048311905601e-04 -2.599997066645465699e-05 5.189999979229058995e-04 -6.009999727505317734e-04 -3.530000453538961096e-04 1.000000036700365424e-04 8.150000401523320578e-04 -4.449999371856606326e-04 1.176999995945817975e-03 -2.866997685504188605e-03 -2.787300017947187333e-02 3.740200004366710934e-02 -2.456000468706815831e-03 -1.420000289999691183e-03 -1.043689999850248296e-01 2.865000121103724630e-03 -1.049997628413363524e-04 2.050099998429049525e-02 2.497000254164041897e-03 -2.021999792830839627e-03 1.834099998823664895e-02 3.250001853169512227e-04 -9.319999546405275228e-04 2.080299999913699793e-02 -2.069999989543575003e-03 1.387999864333876177e-03 2.091200001003966011e-02 1.338999921288588175e-03 2.537000121746883167e-03 2.050099999007476068e-02 4.090000949462077639e-04 2.340000513168554916e-04 2.040699999750864371e-02 -6.419999412770576851e-04 7.419999722270062808e-04 2.080500000280258166e-02 4.950000831140267260e-04 2.790000562957725195e-04 1.887999999698898590e-02 6.320000931054588558e-04 2.860000685609771125e-04 2.078599999622577146e-02 -5.080001384751280536e-04 3.169999979906214065e-03 1.834699999963764622e-02 -2.557600066019893870e-02 1.145899810303949162e-02 3.740100012972969595e-02 1.670003029241443125e-04 -2.478999966480227406e-03 2.091300000155440000e-02 5.670000842937103708e-04 4.020000636380179375e-04 2.077899999646869167e-02 2.482599912164247177e-02 1.433500191483886091e-02 3.728399984864517319e-02 1.266499956933853782e-02 7.315000980038252262e-03 2.220599992278424889e-02 1.370700057516156117e-02 -7.216998958027007194e-03 5.314999931548232588e-03 -4.580001375056110295e-04 3.949999458842403353e-04 -1.949899999786646257e-02 -2.590800114283391825e-02 1.491899803794619409e-02 -2.627999871893822552e-03 1.934999746633523417e-03 1.759000124569027115e-03 -2.180000001243794297e-02 5.999988583437109108e-04 1.548300005068514208e-02 5.312999981222482279e-03 -1.932000032713046588e-03 -1.117000167324809761e-03 -2.123099998821989520e-02 -6.150001524177882298e-04 6.309999345416916804e-04 -1.896699999723558058e-02 4.579998726994456443e-04 2.670000152564499509e-04 -1.940400000279479328e-02 -8.040001484253670762e-04 5.079999192866538251e-04 -1.992899999606946582e-02 1.129999372761525986e-04 -5.940000109338764355e-04 -1.950200000003040821e-02 2.409999594062411802e-04 -8.480000007247968626e-04 -1.897300000048323873e-02 2.492999819714430097e-03 7.930001667747092536e-04 -2.179600001455310812e-02 3.799996224377699509e-05 -9.550000170286695013e-04 -1.992499999925582618e-02 -2.489000009067220392e-03 -1.436000209537764737e-03 -2.131799998482669309e-02 -3.499775351754814593e-05 -2.989500000526802703e-02 -2.623999969945392790e-03
-2.050006127272646194e-04 -1.180001279987171571e-04 -1.126209999987505678e-01 -1.599815477363298490e-05 -2.304499998269283687e-02 1.853800002310742462e-02 1.870000171939371024e-04 -3.519999875632225258e-04 -1.708000000680608447e-03 2.099993624188025354e-05 9.290000027649097502e-04 1.177999998956126906e-03 -4.069999571290944165e-04 -4.500000291823116655e-04 1.601000002696075560e-03 -1.996600076810701660e-02 1.150899850848242402e-02 1.853700009871336526e-02 2.015599921616243254e-02 1.163700154182485159e-02 1.744099987711787009e-02 2.100000258105961279e-04 -3.049999836212031763e-04 4.969999991454877300e-04 2.109999844677853855e-04 1.210000148032823252e-04 -1.156000001285553387e-03 1.659999770804064458e-04 3.410000130740377779e-04 5.199999987430870864e-04 -2.110000350665697981e-04 3.389999823359329052e-04 -1.707999999173929768e-03 -1.590000225171374489e-04 3.339999884712298609e-04 4.970000005440323131e-04 -5.929999814875566797e-04 -1.280000432505393746e-04 1.600000003401130582e-03 3.790000049123406589e-04 -2.699997081671628988e-05 5.199999979349443626e-04 -6.019999731397227558e-04 -3.480000454315241589e-04 9.800000367056200656e-05 8.160000402334822295e-04 -4.459999371090315242e-04 1.177999995941296767e-03 -2.863997686667889286e-03 -2.785900017926395966e-02 3.738300004363656615e-02 -2.456000468594770909e-03 -1.419000289965729284e-03 -1.043349999850258225e-01 2.867000121135196249e-03 -1.059997626980668523e-04 2.049299998428045708e-02 2.494000253839441343e-03 -2.017999793061725586e-03 1.833699998824921129e-02 3.220001850348619106e-04 -9.289999548774070847e-04 2.079299999915056041e-02 -2.066999989458552772e-03 1.385999864548780611e-03 2.090000001002509725e-02 1.342999921390169993e-03 2.535000122040414160e-03 2.049199999005468092e-02 4.090000947822598613e-04 2.350000513008734544e-04 2.039099999750764239e-02 -6.429999414189262142e-04 7.429999721393894339e-04 2.079300000280710076e-02 4.920000827507873750e-04 2.830000560578940522e-04 1.886899999700154817e-02 6.290000930723397676e-04 2.860000683280930879e-04 2.077999999624233207e-02 -5.010001383790662699e-04 3.167999980425637279e-03 1.833699999960100580e-02 -2.555900065953647243e-02 1.144899810430822541e-02 3.738400012964585017e-02 1.670003031493873680e-04 -2.482999966494211543e-03 2.089900000155839668e-02 5.630000843583008591e-04 4.010000633334991332e-04 2.077699999649177190e-02 2.481299912229389948e-02 1.432500191383668901e-02 3.726499984872692212e-02 1.265099957001756398e-02 7.305000978965444161e-03 2.219199992287151577e-02 1.370100057513396093e-02 -7.216998958485782573e-03 5.309999931581351265e-03 -4.600001372400812924e-04 3.919999457399719303e-04 -1.949199999785242512e-02 -2.588200114178061326e-02 1.490499803991158188e-02 -2.628999872023354053e-03 1.930999746565060723e-03 1.761000124281489375e-03 -2.178500001241786069e-02 6.009988590889737275e-04 1.547300005075877630e-02 5.310999981226950661e-03 -1.928000032938289709e-03 -1.113000167008304812e-03 -2.121699998824596797e-02 -6.140001524547795573e-04 6.319999346243139818e-04 -1.895999999724209961e-02 4.619998727546441005e-04 2.670000155689597888e-04 -1.939400000281687325e-02 -8.080001485269487855e-04 5.099999189931227238e-04 -1.991999999604938260e-02 1.099999372557209119e-04 -5.930000111507784284e-04 -1.949200000001484814e-02 2.389999594078889291e-04 -8.470000008620729879e-04 -1.895900000047319803e-02 2.490999819775148623e-03 7.930001666344363691e-04 -2.178500001454206775e-02 3.699996219574600817e-05 -9.540000170993053570e-04 -1.991999999925130743e-02 -2.491000008855241352e-03 -1.438000209678037562e-03 -2.130699998481365431e-02 -3.399775566831449625e-05 -2.986700000519839152e-02 -2.629999969978881122e-03
-2.040006121879664968e-04 -1.190001278391812363e-04 -1.125369999987550773e-01 -1.599815673062769116e-05 -2.301999998270482309e-02 1.852600002308245342e-02 1.880000171939370996e-04 -3.519999874875922685e-04 -1.708000000686128337e-03 2.099993616624999288e-05 9.300000027649097745e-04 1.177999998955127922e-03 -4.109999571290944053e-04 -4.500000294848326946e-04 1.601000002718154904e-03 -1.994300076711442993e-02 1.149499851020993266e-02 1.852500009860039154e-02 2.013399921707386547e-02 1.162400154014800110e-02 1.742799987725228775e-02 2.120000257995563692e-04 -3.049999834719404126e-04 4.949999991344480096e-04 2.089999844677853911e-04 1.210000146520218107e-04 -1.156000001274513824e-03 1.649999769181062352e-04 3.430000129964097641e-04 5.179999987466091770e-04 -2.100000350665698009e-04 3.389999824115631625e-04 -1.707999999179449658e-03 -1.580000226038074350e-04 3.349999885448623916e-04 4.950000005375134989e-04 -5.939999814119264468e-04 -1.290000433261696020e-04 1.600000003407649240e-03 3.790000048957810970e-04 -2.699997081971291965e-05 5.169999979349443981e-04 -6.019999732909832703e-04 -3.460000454315241645e-04 9.800000366856425563e-05 8.170000401633718866e-04 -4.449999370324023672e-04 1.178999995934778026e-03 -2.862997688696642621e-03 -2.783400017921330502e-02 3.735800004360607940e-02 -2.452000468377849279e-03 -1.418000289610267832e-03 -1.042819999850489038e-01 2.867000120923216943e-03 -1.039997627090544880e-04 2.048199998427845808e-02 2.490000253638502154e-03 -2.015999793373236555e-03 1.832799998826929386e-02 3.200001848284028802e-04 -9.269999550386563052e-04 2.078299999915960566e-02 -2.066999989438121198e-03 1.384999864538791724e-03 2.089000001002609685e-02 1.344999921427161285e-03 2.534000122184682305e-03 2.048499999004464028e-02 4.070000947215414553e-04 2.350000511386252826e-04 2.037999999751868158e-02 -6.419999414040142901e-04 7.419999722040321452e-04 2.078200000280257947e-02 4.900000826199584934e-04 2.840000558966447532e-04 1.885899999701158916e-02 6.290000929083918108e-04 2.870000683121110507e-04 2.076399999624133422e-02 -4.990001381207039878e-04 3.163999980568907126e-03 1.832899999959396523e-02 -2.553600065868575839e-02 1.143599810602374811e-02 3.736000012953187566e-02 1.680003031808587728e-04 -2.483999966426572205e-03 2.089100000155387493e-02 5.600000842385117333e-04 4.020000630986173278e-04 2.076899999650733131e-02 2.479099912313909720e-02 1.431200191214785158e-02 3.723999984886134512e-02 1.262999957087380075e-02 7.292000977354234741e-03 2.216899992300042088e-02 1.369700057495510347e-02 -7.214998958793298472e-03 5.304999931601433495e-03 -4.580001371313319170e-04 3.909999458972257275e-04 -1.948599999786246664e-02 -2.586200114086917995e-02 1.489199804141120090e-02 -2.641999872120765706e-03 1.921999746594307834e-03 1.762000123619795501e-03 -2.176600001236918269e-02 5.999988596553768559e-04 1.546500005067615209e-02 5.303999981240461493e-03 -1.920000033158013059e-03 -1.109000166388279416e-03 -2.120199998829412277e-02 -6.150001522703999433e-04 6.299999345546771455e-04 -1.895399999723457879e-02 4.599998728633935955e-04 2.660000154236925570e-04 -1.938800000280483521e-02 -8.070001484662304037e-04 5.099999190797406112e-04 -1.990899999605490189e-02 1.109999371375795183e-04 -5.910000110691548698e-04 -1.948600000002236737e-02 2.389999593488182337e-04 -8.460000008590763372e-04 -1.895600000047419770e-02 2.487999820462988634e-03 7.850001664225287517e-04 -2.177000001451752029e-02 3.799996207760462816e-05 -9.520000170176820152e-04 -1.991399999925882666e-02 -2.489000009021413284e-03 -1.435000209515789561e-03 -2.129599998482769110e-02 -3.499775755519879866e-05 -2.984300000528700494e-02 -2.642999969997334234e-03
-2.060006114759051676e-04 -1.190001278615866401e-04 -1.124079999987440404e-01 -1.599816064461710030e-05 -2.296999998272879900e-02 1.850200002303251101e-02 1.880000171403862672e-04 -3.509999874835967966e-04 -1.704000000687127224e-03 2.199993638762090905e-05 9.270000028395410834e-04 1.176999998952604851e-03 -4.089999572913945972e-04 -4.480000293355699366e-04 1.599000002705117541e-03 -1.990100076533958887e-02 1.146999851336542690e-02 1.850400009839352905e-02 2.009099921892985863e-02 1.159800153687592233e-02 1.740799987751561265e-02 2.100000257294460076e-04 -3.039999836222020816e-04 4.959999991444888302e-04 2.109999843220447069e-04 1.230000148042812087e-04 -1.155000001287551223e-03 1.639999772206272941e-04 3.390000129207795180e-04 5.179999987561245689e-04 -2.120000352012707209e-04 3.409999822632992688e-04 -1.704999999170407447e-03 -1.550000225226573231e-04 3.339999887727520145e-04 4.960000005219528368e-04 -5.909999813473358968e-04 -1.300000431012766054e-04 1.598000003392088504e-03 3.760000049714113356e-04 -2.799997104660368865e-05 5.169999979525028355e-04 -5.979999732965031716e-04 -3.460000451300020109e-04 9.700000364648483355e-05 8.130000400711820787e-04 -4.439999373379200525e-04 1.175999995955858638e-03 -2.858997691789738615e-03 -2.779500017893675110e-02 3.733200004354503276e-02 -2.451000468100208388e-03 -1.417000289470709412e-03 -1.042179999850554317e-01 2.863000120808948008e-03 -1.029997630185676752e-04 2.047499998429953838e-02 2.486000253459642092e-03 -2.013999793680752454e-03 1.832299998828937695e-02 3.210001847196534692e-04 -9.259999549690192764e-04 2.077699999915308751e-02 -2.064999989325500083e-03 1.382999864683059953e-03 2.088300001001705541e-02 1.341999921593333735e-03 2.531000121946803613e-03 2.047399999006419696e-02 4.090000947530128572e-04 2.340000512818947963e-04 2.037199999750864340e-02 -6.429999413725429611e-04 7.409999721204107515e-04 2.077400000280910097e-02 4.920000826403902235e-04 2.830000560379164888e-04 1.884899999700154899e-02 6.290000929619427245e-04 2.860000683081155787e-04 2.075999999624233289e-02 -4.990001378568219726e-04 3.159999980561914792e-03 1.832199999959795850e-02 -2.549900065777596647e-02 1.142199810879509884e-02 3.733300012934162582e-02 1.640003027530288391e-04 -2.478999966738083208e-03 2.088200000157095990e-02 5.620000842589434635e-04 4.010000632398891176e-04 2.075899999649729114e-02 2.475699912443255629e-02 1.429300190955045194e-02 3.721399984906799407e-02 1.260099957209162742e-02 7.274000975134986731e-03 2.214299992317847465e-02 1.368800057455487121e-02 -7.209998959477966277e-03 5.300999931646117706e-03 -4.560001370595737850e-04 3.909999460614716231e-04 -1.947299999787350730e-02 -2.582500113927155283e-02 1.486999804419753338e-02 -2.653999872303025587e-03 1.908999746424263526e-03 1.766000122660575265e-03 -2.174200001230142121e-02 5.999988601682290949e-04 1.545800005067315443e-02 5.300999981247454633e-03 -1.906000033554948242e-03 -1.102000165305482742e-03 -2.117799998837839245e-02 -6.150001521230115484e-04 6.289999345676625022e-04 -1.894099999723358047e-02 4.589998729406715447e-04 2.660000153620465562e-04 -1.937400000279931520e-02 -8.050001484701025832e-04 5.109999192439864226e-04 -1.989599999606694175e-02 1.089999371337074043e-04 -5.900000112074299790e-04 -1.947300000001232767e-02 2.389999593449460870e-04 -8.450000008460910404e-04 -1.894300000047519777e-02 2.482999821584177917e-03 7.720001660693494696e-04 -2.174500001447693398e-02 3.899996216592230454e-05 -9.520000169260697505e-04 -1.989799999926434443e-02 -2.485000009176546037e-03 -1.432000209200282861e-03 -2.128299998485276914e-02 -3.399776101927880358e-05 -2.979800000522236231e-02 -2.653999970047803570e-03
-2.040006106115122789e-04 -1.170001275265327752e-04 -1.122239999987570819e-01 -1.499816575765092959e-05 -2.290399998267514392e-02 1.848000002296106350e-02 1.780000173082063716e-04 -3.529999882369027372e-04 -1.701000000629930824e-03 2.599993768824712716e-05 9.090000031310744785e-04 1.165999998948504890e-03 -4.019999578208064447e-04 -4.410000288061581282e-04 1.599000002659486290e-03 -1.985700076337098066e-02 1.144199851666619083e-02 1.847700009817862532e-02 2.003599922112535986e-02 1.156700153268928714e-02 1.738099987785017217e-02 2.060000257515254166e-04 -3.039999839207276088e-04 4.999999991665682710e-04 2.129999844898647777e-04 1.210000149585383416e-04 -1.152000001296593287e-03 1.699999774695974740e-04 3.360000133785565448e-04 5.219999987260020603e-04 -2.150000347143700180e-04 3.349999820424018207e-04 -1.698999999147854595e-03 -1.540000221389862037e-04 3.289999888493811342e-04 4.970000005214274567e-04 -5.919999812291944219e-04 -1.320000431829001369e-04 1.592000003399606217e-03 3.750000043774090333e-04 -1.999997112023622076e-05 5.189999979500317705e-04 -5.949999734036049261e-04 -3.440000448951202410e-04 1.050000036279275255e-04 8.010000396449998023e-04 -4.379999382404887792e-04 1.180999996016103646e-03 -2.851997695644657108e-03 -2.774600017843431229e-02 3.730500004345745080e-02 -2.443000468324380437e-03 -1.409000288796745078e-03 -1.041489999851075848e-01 2.852000120705717925e-03 -1.019997638554948852e-04 2.046999998435925644e-02 2.486000253074323145e-03 -2.009999793695735597e-03 1.830799998828538250e-02 3.250001847069660158e-04 -9.269999546824803874e-04 2.076099999913200850e-02 -2.061999988952868505e-03 1.377999864908952161e-03 2.088200001000549075e-02 1.337999922408707014e-03 2.520000121641286124e-03 2.047099999009726473e-02 4.050000943787336475e-04 2.380000509663883479e-04 2.035899999752672357e-02 -6.419999414332612942e-04 7.409999721850533787e-04 2.076300000280358049e-02 4.950000824504906596e-04 2.850000562578151268e-04 1.884199999698299433e-02 6.240000929012242455e-04 2.860000679189766081e-04 2.074899999626993174e-02 -5.000001375819003099e-04 3.155999980481290386e-03 1.831699999960747366e-02 -2.546000065651563005e-02 1.140299811171271473e-02 3.730100012914533414e-02 1.660003024930188837e-04 -2.475999966592815765e-03 2.087600000155691998e-02 5.620000846244073076e-04 3.950000632239070728e-04 2.074299999650328769e-02 2.471799912601584451e-02 1.426900190655891985e-02 3.717199984930723983e-02 1.255799957358273017e-02 7.251000971837936147e-03 2.209799992343880123e-02 1.367500057425070220e-02 -7.206998960475143913e-03 5.286999931714879419e-03 -4.630001372147063182e-04 3.939999455450452219e-04 -1.945999999783786655e-02 -2.576500113709648265e-02 1.483999804871836969e-02 -2.670999872604250432e-03 1.899999746322681479e-03 1.768000121988892986e-03 -2.173300001225373854e-02 5.929988606959931720e-04 1.545000005012975991e-02 5.286999981294083877e-03 -1.900000034525454323e-03 -1.088000164835719284e-03 -2.116199998842549848e-02 -6.120001523703340373e-04 6.329999348045420174e-04 -1.893099999725413735e-02 4.569998729958700719e-04 2.660000152207747963e-04 -1.936400000278827582e-02 -8.000001480864315020e-04 5.059999196231366797e-04 -1.989499999608954767e-02 1.049999370266057371e-04 -5.880000115019599558e-04 -1.946499999999224545e-02 2.389999591622141649e-04 -8.420000008380999637e-04 -1.893500000047819085e-02 2.478999822596617952e-03 7.600001657858071078e-04 -2.172600001444286583e-02 3.699996219904144745e-05 -9.520000170713370123e-04 -1.989199999925330559e-02 -2.478000008641614935e-03 -1.439000208669872355e-03 -2.128199998488441297e-02 -3.599776589990199985e-05 -2.973500000539459898e-02 -2.674999970099693238e-03
-1.590006116335095348e-04 -8.400012385647114932e-05 -1.119569999990384368e-01 -1.299817107327169165e-05 -2.283699998256883204e-02 1.843500002288310166e-02 1.930000171144347087e-04 -3.499999870964556068e-04 -1.695000000715725331e-03 -7.000063298818264071e-06 9.230000006482613848e-04 1.178999999116675914e-03 -3.789999583391786111e-04 -4.340000270646645068e-04 1.601000002525537714e-03 -1.979000076047273196e-02 1.140199852171044220e-02 1.845400009784875159e-02 1.997499922484837626e-02 1.151500152803788465e-02 1.734299987823882325e-02 2.040000272773947240e-04 -3.259999840969599483e-04 4.749999991995831916e-04 2.369999848956152576e-04 1.160000167786589344e-04 -1.147000001424075500e-03 1.579999791925338628e-04 3.130000124679969227e-04 5.189999988152145874e-04 -1.980000341093280075e-04 3.269999833281161624e-04 -1.698999999233701290e-03 -1.670000227219487735e-04 3.369999878701833234e-04 5.010000005851945794e-04 -5.869999819004748228e-04 -1.240000428167353785e-04 1.580000003364015904e-03 3.720000059082214381e-04 -3.899997133014603283e-05 5.359999979855699457e-04 -5.849999755085646611e-04 -3.150000441228357150e-04 1.210000035437615437e-04 7.780000425835402553e-04 -4.769999399819823110e-04 1.178999996182016454e-03 -2.851997701921391883e-03 -2.766600017847526544e-02 3.726400004337754313e-02 -2.437000467549376315e-03 -1.411000288230090114e-03 -1.040359999851386968e-01 2.858000120879057929e-03 -1.039997633977178342e-04 2.047399998432813603e-02 2.468000252917543387e-03 -2.007999795058078730e-03 1.830699998838274112e-02 3.320001852694968937e-04 -9.339999541470753956e-04 2.076699999910035926e-02 -2.056999988100503655e-03 1.365999865277114618e-03 2.087200000998987864e-02 1.344999921982524766e-03 2.526000122175692773e-03 2.047599999005263183e-02 4.160000948954580024e-04 2.300000517823391657e-04 2.034299999747399973e-02 -6.409999419957921945e-04 7.479999722546903365e-04 2.075700000279107060e-02 4.790000820635240955e-04 2.880000550187635866e-04 1.881299999706831372e-02 6.450000938402587628e-04 2.730000694992210705e-04 2.074099999616699913e-02 -5.000001367405754703e-04 3.143999980469304022e-03 1.830499999961945901e-02 -2.538400065353070556e-02 1.136199811743963950e-02 3.728000012876677566e-02 1.660003026923103947e-04 -2.478999966597809999e-03 2.087100000155991952e-02 5.640000837626508350e-04 4.080000633971428382e-04 2.076499999647925948e-02 2.464099912804023143e-02 1.423800190067745636e-02 3.711399984976324062e-02 1.251099957486185264e-02 7.230000968227377929e-03 2.204199992371921185e-02 1.367700057361254107e-02 -7.198998960329876240e-03 5.280999931695848706e-03 -4.580001353995802392e-04 3.699999459231965754e-04 -1.945999999784149212e-02 -2.570200113431250072e-02 1.480099805345310923e-02 -2.700999872913045167e-03 1.862999745809252629e-03 1.778000119234524013e-03 -2.168900001205949224e-02 6.069988617476492366e-04 1.543500005117360262e-02 5.271999981231788833e-03 -1.876000035212223175e-03 -1.076000162980638017e-03 -2.112199998856995747e-02 -5.920001521969940183e-04 6.309999363211427244e-04 -1.892699999736253622e-02 4.389998738830015279e-04 2.550000138694189780e-04 -1.935400000267793047e-02 -8.050001481146074360e-04 5.089999192809449829e-04 -1.985899999606494451e-02 1.069999376332954924e-04 -5.950000113367152465e-04 -1.945099999999629417e-02 2.519999588668606788e-04 -8.369999998399234743e-04 -1.892000000055494430e-02 2.474999825436872795e-03 7.250001655182467366e-04 -2.169100001438582781e-02 4.399996086142391789e-05 -9.330000165239454250e-04 -1.987399999931092204e-02 -2.489000010431365734e-03 -1.413000209469841189e-03 -2.124999998484966915e-02 -2.199777131545688441e-05 -2.966500000435775067e-02 -2.696999970246892649e-03
