4.959553856031996165e-04 1.638240598223932587e-01 4.245697535670969053e-03 -5.100451836541841861e-04 1.638240608085765326e-01 4.259656570481731852e-03 1.080470861781957414e-05 2.242068597512785616e-03 4.838968656885342910e-03 2.482904358460302427e-03 -3.931969717654202993e-03 2.273156854726298120e-03 -8.066223128395533039e-06 -8.328979208248368446e-03 1.466117759462318192e-03 -2.482095427548937795e-03 -3.923965900968073330e-03 2.267954562283044755e-03 -8.128269276303680475e-06 -8.572957672152613923e-03 2.985121217424543949e-03 3.663872241983817408e-03 -4.070959498611495704e-03 3.059206916029924735e-03 -3.662127011912715870e-03 -4.061954017582880896e-03 3.040908467491505729e-03 2.487470587241739429e-05 5.043605500924673177e-06 3.077000944272086178e-03 -2.212492838461418377e-05 4.043514701686544114e-06 3.067999044578213590e-03 -1.212469266219515808e-05 4.504343597861489978e-05 3.062998870503071038e-03 -2.912637794894952010e-05 -1.309560119364838358e-04 3.101000673499647135e-03 -2.126219689498925938e-06 7.104396690225604609e-05 3.100998909054407046e-03 2.287337219786720173e-05 -1.379559675848060767e-04 3.107002890222671822e-03 1.873340213678219278e-06 8.104411972501229886e-05 3.111998930149951353e-03 1.787410057561875139e-05 6.404383782067569380e-05 3.092999822723210227e-03 -2.812647026156248704e-05 6.304407232773477242e-05 3.106997963728807925e-03 3.187718905427880324e-05 4.042735174535236062e-06 3.016001243552513152e-03 -3.212302076542754878e-05 -3.957143823927475693e-06 3.020998750835500977e-03 -7.121630767606431586e-06 5.504236872797376497e-05 2.987998932399411542e-03 -3.012387039473085780e-05 5.504316651563033301e-05 3.042997995768707917e-03 -8.124063047148897550e-06 6.904322017728034815e-05 3.047998693134095806e-03 2.587588131591523431e-05 5.004320773512183079e-05 3.049000347019610157e-03 5.871920465974629639e-06 8.804461281515971421e-05 3.146998993756475356e-03 1.287338395976350640e-05 -1.229559597563566957e-04 3.107002270347708831e-03 -2.412690497329620691e-05 -1.279558315404273258e-04 3.114000834558527768e-03 1.046582187128975971e-07 3.709636622730830323e-04 -2.563005257567685640e-03 1.411225915765278443e-04 7.995722860322918132e-05 -3.008995389783908261e-03 -1.328781905114851248e-04 6.895771252339671323e-05 -2.990006391359378412e-03 -2.338540352837419935e-04 -2.330507008629690332e-04 -3.589006221923944986e-03 2.411462164830678796e-04 -2.230511578539233898e-04 -3.594987021291721433e-03 4.126697218003536879e-06 -3.970442236357003330e-04 -3.118994205645081626e-03 5.511895806523205073e-05 1.595854359334247387e-05 -2.920997984482046929e-03 1.311714975319389824e-05 -3.690408989035781498e-04 -2.883994236353254210e-03 -5.988165265198711263e-05 1.595884630483085359e-05 -2.906002667393869747e-03 2.925992349756174802e-06 1.900026283092073193e-03 1.853973182688490283e-03 2.879018241048108238e-03 1.039991677552807572e-03 -4.278975091457730136e-04 -2.876981379070995756e-03 1.050996056877414242e-03 -4.371320543118320653e-04 -4.196508748633687971e-04 -4.957122577949895845e-03 -8.668946815525272603e-03 4.133493209977796021e-04 -4.966123301073763381e-03 -8.673912767451772907e-03 1.317996644693963446e-05 -1.792063157898843512e-03 -4.453974059936370404e-03 4.307514159281515358e-05 -1.410262342204515339e-04 -1.847996248220855299e-03 -1.186631109658803634e-05 5.495347786602715155e-05 -3.282001265376262300e-03 -2.392449029690795894e-05 -1.390263093600689680e-04 -1.856999004865040465e-03 5.124186804285422986e-06 -1.504324618932642868e-05 -3.049999580894017636e-03 -1.187655164174939138e-05 -2.204297767736955701e-05 -3.032000173920874637e-03 1.312381482507570984e-05 -2.204312485243172662e-05 -3.040999155891230439e-03 1.812740687415806781e-05 -1.104437641451339585e-05 -3.128999108160568105e-03 -5.872802195150795092e-06 -1.804428673292315995e-05 -3.123999986221298771e-03 -1.875459239524467692e-06 -3.104336830689862484e-05 -3.058999639087393429e-03 1.612893935485973092e-05 -8.204492777538264538e-05 -3.167998182944809903e-03 1.128136704102809680e-06 -6.704463247604520082e-05 -3.147999006442621026e-03 -1.087106140631995479e-05 -8.304490663438562209e-05 -3.167999268230026633e-03 2.300444322894464421e-05 -4.600157756176421130e-05 -1.099984111410490077e-04 -2.006775304271514491e-06 3.200236925459200071e-05 1.669994647146238835e-04 -3.799720984484050815e-05 -7.700096268405903050e-05 -7.000045563948356154e-05 1.699639233614504906e-05 1.250012768558419541e-04 9.099891994944212989e-05 -5.100069612984822314e-05 -4.999719044170815852e-06 1.699799410960721447e-05 4.399914012442523650e-05 -5.999736717523365159e-06 2.100187676450836761e-05 -3.798954414046303973e-05 -6.400362811089785114e-05 -2.580006397756441205e-04 5.000764604858897225e-05 -6.400271874667951152e-05 -1.889970564048881860e-04 4.196956132720083436e-10 -8.800017012467295952e-05 -1.199875234565970529e-05 1.431711757313765959e-03 -2.569690777205527188e-02 6.584422632126139124e-03 6.947352458802494987e-06 -2.020982226321847274e-03 1.254028937140208447e-03 -1.446284919971121789e-03 -2.566890666699658471e-02 6.503305040614546471e-03 -1.981946602208066075e-05 -2.674007013337583588e-02 -4.947621696422256805e-03 -6.009864103489344009e-03 -1.178904582266731248e-02 -3.564077587348607381e-03 6.023136833296259367e-03 -1.177605557055065935e-02 -3.586587777636665152e-03 1.930008504180986875e-03 -5.255005905769378864e-03 -3.098469043221492971e-04 -1.948988795623447789e-03 -5.243003804262994297e-03 -3.760050305754387761e-04 1.694677301498176099e-05 -3.539982446665606956e-03 1.239050880385370512e-03 3.900054895289204013e-05 7.699979932184307526e-05 -1.199950356343824506e-05 -3.999981039200275188e-05 1.380000029503435218e-04 -2.003585363543941819e-06 -7.000824547487122885e-06 9.100031738329723168e-05 2.199842475711550233e-05 1.499929441252952536e-05 -1.699977072070736901e-05 1.700085181894252031e-05 -4.000296245165213570e-05 -9.099896204750913277e-05 7.099966127642936891e-05 1.999726147569458657e-05 -6.499907991887639974e-05 6.600173591029421724e-05 -2.299983161254934270e-05 6.999961297024453419e-06 -4.001035820201559348e-06 -2.001557576716964559e-06 -1.299945967647333689e-05 3.800010283389810330e-05 2.100082534443032767e-05 -3.800031417279106985e-05 -2.099860608759323113e-05 -8.814928856874307815e-05 -3.539795760680865266e-02 2.985498278261462107e-03 1.334350937967624696e-02 -1.767484445289074779e-02 1.170879396012284440e-02 -1.325448697802647513e-02 -1.767982488858227744e-02 1.161871093789639681e-02 1.590381283540709010e-03 -4.050944870540510584e-02 3.897263913256472645e-02 -1.622619879785911282e-03 -4.043844576431176313e-02 3.900250728982099235e-02 3.407186372825367999e-05 -2.112677453991746845e-03 2.275203136169377457e-02 8.981986229121759506e-04 -5.703723243883257292e-03 1.957011745981573209e-02 4.712408917487210164e-05 -3.332695980248451088e-03 2.144604918915032216e-02 -9.388001006560185106e-04 -5.635722230860035209e-03 1.954004169155219850e-02 4.313171424334715561e-05 1.103023070232005527e-04 2.132500021233978138e-02 -5.186226528710736458e-05 5.030026892237493140e-05 2.117599719466324582e-02 1.513674171067412998e-05 8.230057090329059269e-05 2.120099946924859993e-02 7.315412786912548284e-05 2.829445739854191108e-05 2.077300259705505692e-02 -8.184734738042106366e-05 -3.570492500776427603e-05 2.080799719266746006e-02 2.313140879118177873e-05 -1.969760641479402887e-05 2.133000124102735900e-02 9.216288748544762901e-05 -6.970863405009933408e-05 2.055600476037377361e-02 -5.685278602149001928e-05 -1.167030731055144913e-04 2.093999935896487252e-02 -1.284037949754811626e-05 -8.170741761066417110e-05 2.063600065474319872e-02 4.613860622429488901e-05 7.129989445293199166e-05 2.115500088759314154e-02 5.214490149447703030e-05 5.029769219879078854e-05 2.100000142979537021e-02 -9.685661288875764433e-05 4.029833344465457757e-05 2.103699550413179117e-02 5.613961946061629883e-05 -9.070051033896829173e-05 2.112700359162536512e-02 -3.385930372568850928e-05 -1.197008226668655337e-04 2.110000033792900492e-02 -1.586209075494736850e-05 -9.069985849583981317e-05 2.116900065968503955e-02 9.138574053525773524e-06 -1.257001190897364914e-04 2.115200217394384505e-02 -3.186527712867187216e-05 -5.169872592599926268e-05 2.124799945514520977e-02 -1.286177912001956466e-05 -1.606999884379297456e-04 2.116000177429940357e-02 -5.351044012557227723e-04 1.226688933398113876e-03 -2.197003920206869534e-02 4.699000247536704511e-04 1.263686615281347765e-03 -2.207799880209017698e-02 5.492914401664597551e-05 4.366765763397132500e-04 -2.280900397555346570e-02 1.135825641973750013e-03 -6.402885277484466481e-04 -2.028794468920567043e-02 7.790356038157753924e-06 -4.612753098648619907e-04 -1.941799316095414382e-02 -1.146173940280868905e-03 -5.772868685577282237e-04 -2.029703850737864940e-02 -5.012781814864636143e-05 -1.322303988577692080e-03 -2.144398331382579501e-02 -4.161290578513675764e-04 -4.623030357314149058e-04 -2.139701041057757644e-02 4.898675748882243232e-04 -4.453025683706307927e-04 -2.131397375858560053e-02 1.509937757471701506e-03 1.764672799876491113e-03 -2.299496355461207175e-02 -1.500063370053850023e-03 1.725675539499327022e-03 -2.296808557146625199e-02 -1.598996280500008626e-05 1.243648687416424757e-03 -2.478001830635677416e-02 1.133828775862979902e-03 -7.462896462176021308e-04 -2.036694326773100597e-02 -5.020268691200694864e-05 2.804723204017765641e-03 -1.952604182723859452e-02 -1.094169588779056413e-03 -7.922884829871391487e-04 -2.040803334157206134e-02 5.578970826701985287e-05 -2.327275630816470851e-03 -1.943796475062806867e-02 -4.841744327550412505e-04 -2.504287741151803998e-03 -2.032198422960176942e-02 4.408274607928883561e-04 -2.477289117604556442e-03 -2.036794694557134133e-02 2.685507344059272821e-05 7.370228846539835779e-05 -2.099699997089358658e-02 5.853927789475403895e-06 6.670270188729349756e-05 -2.096900072681314939e-02 -4.214562110717931661e-05 7.070258351495674635e-05 -2.098000273811482727e-02 1.285176879557551306e-05 6.570344782957546984e-05 -2.091600042763869585e-02 -1.915082323230296260e-05 3.170436608998792097e-05 -2.085300124872053670e-02 -2.014835258098214869e-05 1.470350202918071657e-05 -2.091400104836270424e-02 1.785317994148746110e-05 9.970296186612474191e-05 -2.095000070604679035e-02 -1.614616061117524608e-05 2.137027899873664247e-04 -2.096400370680774963e-02 -8.145524755840008815e-06 1.937025568806876100e-04 -2.098000309747079586e-02
5.029556948591079948e-04 1.636990596751469462e-01 4.235699592946656072e-03 -5.110444280295473474e-04 1.636970605116386535e-01 4.238658330356362240e-03 -1.950055436034596790e-07 2.243068506881074845e-03 4.831968194784723794e-03 2.491904674033102417e-03 -3.944969838122221358e-03 2.265157405532320246e-03 -4.065504260915695208e-06 -8.346979466578856310e-03 1.448118177562197776e-03 -2.497095321829020421e-03 -3.944965931754399260e-03 2.264954249206099779e-03 -3.128719560411267973e-06 -8.575957520111544483e-03 2.996121463551864456e-03 3.668872240412523328e-03 -4.072959502526275061e-03 3.059207147989707280e-03 -3.674127711209204498e-03 -4.070953767163498944e-03 3.057908106425360518e-03 2.487470587241739429e-05 5.043605500924673177e-06 3.077000944272086178e-03 -2.912546088402248116e-05 4.370449440260333349e-08 3.080998816231225127e-03 -4.124644112255475514e-06 5.504341553584217336e-05 3.061999054493174440e-03 -3.112625186690324896e-05 -1.259560529043816793e-04 3.098000521171916447e-03 -3.126704420882227172e-06 7.604413781829250996e-05 3.112998797433583209e-03 2.587349984291343924e-05 -1.309560124678863402e-04 3.104002913143669856e-03 3.873416952258519246e-06 7.504408980403413140e-05 3.109999096660093134e-03 1.087376932969005402e-05 5.704395672471738250e-05 3.100999636914159984e-03 -2.112631365259613802e-05 5.504401013638671511e-05 3.102998362200592043e-03 1.687465810605120298e-05 -3.956374056403412834e-06 3.078000746104218779e-03 -2.312521578038532647e-05 1.043614729552676942e-06 3.074999046384145791e-03 -2.123627660060965038e-06 5.304305952516740169e-05 3.036999164313643716e-03 -3.612671928140827836e-05 5.704416365908107005e-05 3.112997723023002306e-03 -2.126374737124100735e-06 8.104402361242938637e-05 3.104998767273053992e-03 3.087348426722197250e-05 5.704404030936180344e-05 3.108000451324675201e-03 -7.130368509592164506e-06 7.704541695175899944e-05 3.202998620288751656e-03 1.787146537469504716e-05 -1.289552973143505085e-04 3.154002558974854185e-03 -2.312853224057908656e-05 -1.259552652118105709e-04 3.154000846886668118e-03 -8.937035439754016936e-07 3.829630959430548780e-04 -2.603005468384514149e-03 1.361238194744630436e-04 8.795680718354254989e-05 -3.038995706782383552e-03 -1.298760174215564541e-04 8.795695874933858295e-05 -3.043006538525062660e-03 -2.288524041035681098e-04 -2.300512718900667999e-04 -3.629006060815795701e-03 2.351475132863367233e-04 -2.310516068445915799e-04 -3.626987152164973249e-03 3.128447431379939365e-06 -3.980448324978040501e-04 -3.161994232148196502e-03 5.212061586855841060e-05 9.579646542332219237e-07 -2.961997893940034911e-03 2.118719852887540764e-06 -3.920414432223208608e-04 -2.922994358157802400e-03 -4.687929790621003882e-05 6.958013814657064261e-06 -2.964002010369017146e-03 -7.421673697009123453e-08 1.893026356330744118e-03 1.858973159765633107e-03 2.894018321693773987e-03 1.038991637452375350e-03 -4.298968841533835688e-04 -2.886981630439903242e-03 1.041996149775054883e-03 -4.311323339260496042e-04 -4.216499876225381278e-04 -4.968122888294292452e-03 -8.690946740991127573e-03 4.233501338391388452e-04 -4.968123592459430977e-03 -8.693912331869144833e-03 6.179682190438843827e-06 -1.791063053173403904e-03 -4.446974359166599479e-03 3.007501944107732791e-05 -1.410261815081154373e-04 -1.844996777594708681e-03 2.133741366242679518e-06 6.995345272477342699e-05 -3.283000907949868829e-03 -2.392473305480105142e-05 -1.370262242934984053e-04 -1.850999033226145233e-03 7.123897838879106364e-06 -2.004314851024714092e-05 -3.042999428570005230e-03 -8.876878194531168402e-06 -2.304286660389431109e-05 -3.024000037587994995e-03 1.012303956445671958e-05 -2.404285312512973572e-05 -3.021999249715919423e-03 1.812691508978398324e-05 -1.504420628056579324e-05 -3.116999051460669565e-03 -7.873248555585146786e-06 -1.604412921138347259e-05 -3.113000096028753407e-03 -1.875954941765988454e-06 -4.004319817244696774e-05 -3.046999511498677069e-03 2.212858069805809572e-05 -7.204480487420941259e-05 -3.158998080405704331e-03 2.127442098272754546e-06 -7.004439223621774417e-05 -3.130998923204282407e-03 -1.687150619628973035e-05 -7.904474598106291637e-05 -3.156999569276413078e-03 2.600024427849434918e-05 -5.200011959722539655e-05 -6.998204007663484297e-06 9.899959932770795324e-07 1.700348695294940198e-05 2.459997994701910041e-04 -3.199922865320076019e-05 -5.500025849448564514e-05 -2.000052327165307046e-05 -1.009611609616308279e-06 1.540033892605629877e-04 2.389977756814009354e-04 -7.000626781700978714e-05 4.002238189813605558e-06 1.539970926862098183e-04 7.399409855111667260e-05 4.001997838208881675e-06 1.450029564971370066e-04 -2.499530616259750245e-05 -9.000163921808056091e-05 -1.169997419138028497e-04 2.300412527297810610e-05 -8.800147831296258798e-05 -1.029978156814905622e-04 7.997197257602760463e-06 -9.499905634210283414e-05 6.700167259205522968e-05 1.426721283743680613e-03 -2.549191102905389028e-02 6.354419522294181034e-03 2.953184945123568842e-06 -2.008984250615809906e-03 1.111028604256575130e-03 -1.434278381064524105e-03 -2.548290890232515760e-02 6.346302892346702453e-03 -8.108190404901265777e-07 -2.656607311142953134e-02 -5.156623389462642627e-03 -5.966857924093818717e-03 -1.169804798301462417e-02 -3.714077126389045153e-03 5.966142186604322939e-03 -1.170005736904093825e-02 -3.716591176114354429e-03 1.930016440851903053e-03 -5.208008656266418027e-03 -5.038475704966901203e-04 -1.928983227830001826e-03 -5.205005748106917955e-03 -5.120047547870027957e-04 9.513126308306057734e-07 -3.514984007875473788e-03 1.128049874510851430e-03 2.000097260711266795e-05 4.599965824614620017e-05 -2.299983773871639410e-05 -7.998837819824205879e-06 1.319996376279826888e-04 -2.600219720741704215e-05 -1.499938993355099718e-05 5.099981325066586319e-05 -1.400133386568919812e-05 2.999328874734439977e-06 -2.499977550174237089e-05 1.600047659176645454e-05 -1.700225611212537091e-05 -7.299922108075650889e-05 5.400034267206581034e-05 1.099774229750445236e-05 -7.499924300444724427e-05 5.400151121142400914e-05 -3.599997959723092708e-05 2.600002818524051347e-05 -1.834572490345739091e-09 3.099961000450520001e-05 2.200011750285494575e-05 1.000095042629235427e-05 3.001988266510973697e-06 -9.000697060053963614e-06 -4.899975019202512156e-05 -7.148394169721986695e-06 -3.503595788293476648e-02 2.970496444313971886e-03 1.318651507455540287e-02 -1.747484625816068601e-02 1.157278473152295248e-02 -1.318648470780236365e-02 -1.748482567909103239e-02 1.156671094229873471e-02 1.659394809195858557e-03 -4.024145339559794671e-02 3.864563814296682193e-02 -1.653605310218858896e-03 -4.024145075899829976e-02 3.864850323478428301e-02 8.030469895663648917e-08 -2.149680376347583039e-03 2.254403050195544211e-02 9.642033762506695745e-04 -5.665724940189096302e-03 1.945411960874472365e-02 2.130155808801993821e-06 -3.385698071677586095e-03 2.129604810827292333e-02 -9.627966558197550853e-04 -5.656723417178616091e-03 1.945504101206382147e-02 1.137390880024134998e-06 2.730034084826023319e-05 2.118399967894947847e-02 -4.856128232849756900e-06 3.529809127596792389e-05 2.102499932135006716e-02 8.143908559340615975e-06 3.029806691972659294e-05 2.102399992161087944e-02 2.515732840025437098e-05 7.293374938640743002e-06 2.069400094026067546e-02 -1.484274987395569983e-05 1.129343461367446124e-05 2.069599925471371851e-02 1.365459046873104389e-07 -1.169937480890469837e-05 2.120400019114281054e-02 2.916656651762362967e-05 -5.170986072473881309e-05 2.046600193984407512e-02 1.521913015787232665e-07 -5.270483325598626634e-05 2.081900077278900710e-02 -2.383400431375181191e-05 -5.270962073670665754e-05 2.047999979580371332e-02 -1.853558904549804775e-06 4.029719572536752403e-05 2.096199937268236960e-02 5.015033458149274607e-05 2.029579394322877204e-05 2.086600177381113530e-02 -4.784978593259910714e-05 2.229591321003651698e-05 2.086899775480940966e-02 4.214833451556382587e-05 -8.970353342533065851e-05 2.091300300755461958e-02 -4.685288311795246866e-05 -8.470303840531594728e-05 2.094299931248216548e-02 8.144935933260111482e-06 -6.170231587147356268e-05 2.099700122599021737e-02 1.514768846455053702e-05 -1.347032996129674800e-04 2.092800254607704927e-02 -1.385701316379922307e-05 -5.470161811208637314e-05 2.104500023084253033e-02 -1.385308285663661391e-05 -1.317030075282695075e-04 2.094700132262141551e-02 -4.781162980069070755e-04 1.322693057029491808e-03 -2.167603824231877779e-02 4.768837842098428369e-04 1.324692280912370766e-03 -2.167799938225962661e-02 -2.085693184757300017e-06 4.696817958624749400e-04 -2.244400676484747600e-02 1.199813437397286020e-03 -6.772843386956569180e-04 -1.998894155877189993e-02 -2.234859314982854828e-07 -5.092704973234257488e-04 -1.907899280650343643e-02 -1.199186606035263945e-03 -6.832824461094786847e-04 -1.998803916302807626e-02 2.861536454517062727e-06 -1.292300315497127471e-03 -2.118198158119714500e-02 -4.141433046620159476e-04 -4.552980750697357775e-04 -2.104701042870557939e-02 4.218565317612455183e-04 -4.552986729433406766e-04 -2.104297638607776147e-02 1.461926001675963082e-03 1.676676906496447558e-03 -2.270796426183653224e-02 -1.464073902701929896e-03 1.691679169186096525e-03 -2.271008362371149461e-02 9.976815277599469533e-07 1.221652969979702833e-03 -2.447701730247317520e-02 1.053819739820717168e-03 -7.412864361078430522e-04 -2.014494659649428490e-02 4.788121886135780158e-06 2.819726365133216894e-03 -1.930003980046832504e-02 -1.059180702438133111e-03 -7.362846256817205453e-04 -2.013403271055173513e-02 -7.221210350865401763e-06 -2.334271781837849846e-03 -1.916996721704647411e-02 -4.601843247797942965e-04 -2.448284300567288296e-03 -2.007798404648291832e-02 4.708154692766870872e-04 -2.450284958647531205e-03 -2.007294610701965132e-02 -8.148287579316838101e-06 4.570347845230633092e-05 -2.091500099922222883e-02 1.851833007762219944e-06 4.370342808916029634e-05 -2.091800056365540270e-02 1.853107107404879356e-06 5.870298857599186792e-05 -2.094900077629303567e-02 9.847826712317478420e-06 7.570482542370604877e-05 -2.081900069166905606e-02 -1.515360711565627322e-05 6.470534122255656940e-05 -2.078400155376746924e-02 -5.151484155255274502e-06 7.170459614653044566e-05 -2.083600124575496482e-02 -2.150340056355720395e-06 7.670419681876776169e-05 -2.086400119445519855e-02 -2.114943786356633822e-05 1.887039281284966100e-04 -2.088400355604228681e-02 2.285064824306100585e-05 1.947038653204700997e-04 -2.088600184938955648e-02