2.610018518382467134e-04 -2.320299996270917126e-02 1.757100002173624803e-02 -2.919998120554310171e-04 -2.493000022192905923e-03 -1.089999958980031477e-04 4.750001450050348340e-04 -1.819999962744119548e-03 1.332999999196023740e-03 -4.520000173218816498e-04 1.369999645555393700e-04 -1.260999997641871302e-03 -2.029500077023776300e-02 1.151899848335134757e-02 1.828800010051940747e-02 1.818399932006020334e-02 1.039600139449894586e-02 1.925999988924262732e-02 9.400334489767453526e-05 -4.200699996250779888e-02 3.041700004144093708e-02 2.027000131128773360e-03 -1.564999844387061001e-03 2.312999990374494698e-03 -7.420000081071826065e-04 1.549999445366127533e-04 6.550000039409069373e-04 9.079999792040656425e-04 1.860000674546424793e-04 -1.219000005197819854e-03 1.570100089279891434e-02 -1.278299882591723419e-02 -1.340300007389861291e-02 -1.585899909992590645e-02 -1.297400121410570602e-02 -1.470199989950118913e-02 -1.045999942128597289e-03 -7.530000789424349259e-04 1.670000065259228078e-04 -4.789999277937813903e-04 -9.240000358063635332e-04 4.210000035669726054e-04 1.769000080105289762e-03 -1.077999866467781480e-03 -2.580000086878354816e-04 -2.449996353439336358e-04 -4.966000020506175679e-03 -1.978999993687214493e-03 -1.245000621494357293e-03 6.749998026123936673e-04 -1.033439999938020326e-01 -2.193999568759148148e-03 -4.414000148305592154e-03 1.764700001651960462e-02 5.061000500675339256e-03 -5.381999600291301200e-03 1.696299997743996521e-02 -1.618999969028498591e-03 1.054999897598073600e-03 2.006600000788283031e-02 -1.777000109065170023e-03 2.948999886228834567e-03 2.064700000686309558e-02 4.549000003138643083e-03 1.399000363756871266e-03 1.973699997349274982e-02 -2.200821667394233460e-05 1.100010000169259206e-01 1.861099989024402393e-02 -2.761999821384721315e-03 -9.290001892828155796e-04 1.963000001617380003e-02 -7.959999662759879684e-04 9.499999589028316864e-04 1.912600000344487350e-02 1.292000091646485285e-03 2.280001174191367364e-04 1.972699999264060366e-02 -1.138999554519571885e-03 -4.281000064118614147e-03 2.204900001056330633e-02 6.480004704021582280e-04 -4.565999928358028745e-03 2.265900000098400313e-02 9.580002834033792989e-04 -2.302999907780430705e-03 1.978799999701238987e-02 -3.679997896767836377e-04 -1.293000007467827884e-03 2.038700000332285128e-02 5.360000655954885859e-04 5.680000601817295370e-04 1.966599999647399358e-02 -1.123999570787162635e-03 -4.211000064969928208e-03 2.006100001041058456e-02 1.379500053534165292e-02 -6.720998951789076102e-03 4.896999930567042664e-03 4.189996227477879392e-04 3.338000009105460564e-03 -2.260900000564707024e-02 -1.383000176969443988e-03 8.859998755047245435e-04 -1.992099999325104565e-02 -1.284099943781644854e-02 -7.107000966702138947e-03 4.471000077979479792e-03 2.279989526342939671e-04 1.416000002150686471e-02 4.267999984597382543e-03 -9.074999977396660394e-03 -1.280000699772486589e-03 -1.344299994862874909e-02 7.157999945340064868e-03 -1.889994711165854380e-04 -1.249200003932233669e-02 1.704000018276483411e-03 -1.771999892070486504e-03 -2.096800000763582653e-02 -3.830002916428774224e-04 2.370999950707458441e-03 -2.034900000025422970e-02 -1.657000103127124297e-03 -4.000014452873834576e-05 -1.923099999081364503e-02 -3.499925654105594426e-05 -1.234100003701038561e-02 -3.440199998747967003e-02 2.072999918770543435e-03 -2.909998619004696254e-04 -1.870300001115198993e-02 -1.940999976797405874e-03 -1.794000167152439264e-03 -2.037699998749397529e-02 1.977999988149853425e-03 -1.325999870695530663e-03 -2.031500000959376301e-02 -7.970001575927757086e-04 5.789999191288381069e-04 -2.061699999617902512e-02 7.539996354058040246e-04 3.285000036006837428e-03 -2.104200000744328031e-02
2.620018491564208934e-04 -2.316899996265351508e-02 1.755100002169676654e-02 -2.919998126659930195e-04 -2.485000022193904496e-03 -1.099999959059941621e-04 4.730001446804343586e-04 -1.815999962899375467e-03 1.328999999203068138e-03 -4.500000173053220935e-04 1.369999647097965381e-04 -1.257999997652911118e-03 -2.027100076928933792e-02 1.150499848514649655e-02 1.826800010040091626e-02 1.815999932107874304e-02 1.038100139266284229e-02 1.923899988939008557e-02 9.500334172894800725e-05 -4.196699996245813191e-02 3.039100004139546479e-02 2.020000130776573692e-03 -1.560999844925462909e-03 2.303999990409138100e-03 -7.400000081993723770e-04 1.559999446848766116e-04 6.520000039288683172e-04 9.059999792907356313e-04 1.850000673053797185e-04 -1.217000005185781258e-03 1.568100089174173997e-02 -1.276799882741585547e-02 -1.338900007380319952e-02 -1.584099910083734339e-02 -1.296100121273137742e-02 -1.468899989961353243e-02 -1.041999942204227449e-03 -7.520000786399138725e-04 1.670000065028445075e-04 -4.769999279450419646e-04 -9.220000356551029700e-04 4.210000035539351827e-04 1.764000079965069231e-03 -1.075999866843934966e-03 -2.560000086622339502e-04 -2.469996361537870624e-04 -4.955000020653441833e-03 -1.974999993687162787e-03 -1.242000621355289968e-03 6.789998029191945733e-04 -1.032639999938225750e-01 -2.193999569312286846e-03 -4.408000148323571767e-03 1.762900001651360876e-02 5.052000500159191040e-03 -5.376999600996946148e-03 1.693799997748465097e-02 -1.615999968832502413e-03 1.049999897792001360e-03 2.003300000787126486e-02 -1.769000108959715989e-03 2.945999886811901183e-03 2.062500000682193635e-02 4.543000003363885722e-03 1.395000363289105368e-03 1.972299997352986584e-02 -2.400821032264840787e-05 1.099160000167606760e-01 1.859699989033996789e-02 -2.761999821517198243e-03 -9.290001893067885907e-04 1.960600001617379684e-02 -7.939999663217944858e-04 9.489999590321168080e-04 1.910400000343483173e-02 1.291000091692868623e-03 2.260001173245277967e-04 1.970799999264812030e-02 -1.138999554635488926e-03 -4.281000064139590423e-03 2.202800001056330614e-02 6.460004700372710225e-04 -4.562999928534260639e-03 2.263400000099204806e-02 9.570002828281610162e-04 -2.296999907878035860e-03 1.976599999701191684e-02 -3.659997899715604331e-04 -1.291000007342538083e-03 2.036100000330981832e-02 5.350000654630119581e-04 5.680000600821262687e-04 1.964199999647951375e-02 -1.120999571373420709e-03 -4.205000064767010735e-03 2.003700001038803344e-02 1.377700053460578083e-02 -6.711998953160410245e-03 4.886999930657410021e-03 4.179996239501277918e-04 3.324000009055801379e-03 -2.258300000562756329e-02 -1.384000176427344769e-03 8.799998754450763646e-04 -1.990499999323953190e-02 -1.282399943840657926e-02 -7.100000965427412901e-03 4.460000077878650132e-03 2.289989535567688971e-04 1.414700002157150659e-02 4.256999984604848200e-03 -9.064999977627422392e-03 -1.276000699003198647e-03 -1.342999994868794220e-02 7.149999945395262707e-03 -1.889994717116387415e-04 -1.248200003927817971e-02 1.700000017879548008e-03 -1.764999892349034677e-03 -2.094400000762073819e-02 -3.790002913867397119e-04 2.368999951028957947e-03 -2.033000000027431267e-02 -1.655000102741805302e-03 -4.400014436249466101e-05 -1.921599999082069035e-02 -3.699925750991414495e-05 -1.232600003713168156e-02 -3.437199998748361601e-02 2.066999918750111066e-03 -2.899998623442623900e-04 -1.869300001111986673e-02 -1.937999976675968978e-03 -1.794000166903573232e-03 -2.035499998751053724e-02 1.976999988346920482e-03 -1.326999870749185793e-03 -2.029300000958724273e-02 -7.980001573421578471e-04 5.769999190711876677e-04 -2.059899999617150618e-02 7.529996362835433962e-04 3.275000035953182405e-03 -2.102000000742777069e-02
2.640018487136790702e-04 -2.316299996250025667e-02 1.755300002167973356e-02 -2.919998122602423911e-04 -2.490000022188910457e-03 -1.049999959009997717e-04 4.710001452264057811e-04 -1.822999963047639308e-03 1.331999999221099903e-03 -4.490000168570604158e-04 1.309999647844279367e-04 -1.258999997652437671e-03 -2.025900076892222720e-02 1.149999848605206230e-02 1.826600010033967506e-02 1.815699932121896468e-02 1.037900139243395220e-02 1.923699988940864511e-02 9.200333934577102656e-05 -4.193599996269201796e-02 3.038400004138105959e-02 2.019000130636352825e-03 -1.558999844999095366e-03 2.305999990412660287e-03 -7.390000081883325725e-04 1.559999447625046469e-04 6.540000039233484757e-04 9.099999791339553239e-04 1.870000676069018665e-04 -1.218000005209858268e-03 1.567300089121784895e-02 -1.276099882801989827e-02 -1.338800007376603207e-02 -1.583699910135571293e-02 -1.295400121242685706e-02 -1.468699989964260266e-02 -1.040999942495708782e-03 -7.480000785622858755e-04 1.690000064933291370e-04 -4.779999279820332865e-04 -9.210000357237411832e-04 4.280000035584561506e-04 1.768000080191959884e-03 -1.078999866541414119e-03 -2.560000086813167758e-04 -2.519996357055253678e-04 -4.961000021032591599e-03 -1.975999993653570000e-03 -1.240000621348122259e-03 6.799998030854382440e-04 -1.032489999938346059e-01 -2.194999569284687528e-03 -4.408000148394207972e-03 1.763400001651913018e-02 5.049000500391601087e-03 -5.379999601222837900e-03 1.693899997750420577e-02 -1.613999969005842656e-03 1.051999897939266421e-03 2.002900000785822962e-02 -1.768000108884085816e-03 2.944999886887531958e-03 2.062500000681741566e-02 4.543000003482027330e-03 1.393000363283112067e-03 1.971699997353186171e-02 -3.000820878244395452e-05 1.098960000163118761e-01 1.860199989039306584e-02 -2.760999821328945919e-03 -9.320001892381504262e-04 1.959900001617127102e-02 -7.919999663328342173e-04 9.489999591813795717e-04 1.910200000342379342e-02 1.295000091855168581e-03 2.240001176290465823e-04 1.970999999262803767e-02 -1.138999554500787865e-03 -4.283000064142587424e-03 2.202500001056530154e-02 6.410004701498925100e-04 -4.564999928919404211e-03 2.262700000102164585e-02 9.560002827690904049e-04 -2.295999907950669466e-03 1.976899999701643706e-02 -3.669997899329213893e-04 -1.291000007411176103e-03 2.036800000331533828e-02 5.370000658577229634e-04 5.630000602363833965e-04 1.964499999647346951e-02 -1.121999571303310258e-03 -4.206000064843638808e-03 2.003600001039455500e-02 1.377800053484371304e-02 -6.714998953082780900e-03 4.888999930654887131e-03 4.139996250696697622e-04 3.310000008764267532e-03 -2.257200000559150127e-02 -1.380000176182246676e-03 8.779998757645782279e-04 -1.988799999325961340e-02 -1.282299943831990800e-02 -7.101000965349784158e-03 4.462000077874128841e-03 2.329989534275877692e-04 1.414900002187802382e-02 4.260999984580770769e-03 -9.051999977544624917e-03 -1.276000698005022062e-03 -1.341499994875970138e-02 7.142999945677352101e-03 -1.919994722310617522e-04 -1.247200003923654328e-02 1.694000017573154930e-03 -1.759999892789830935e-03 -2.093100000759261572e-02 -3.780002915104009684e-04 2.370999951109582955e-03 -2.032500000028182943e-02 -1.648000102487315235e-03 -4.700014382808846090e-05 -1.921099999085633045e-02 -4.099925734209405734e-05 -1.232800003743120439e-02 -3.436899998745953505e-02 2.060999919118870847e-03 -2.939998627860574169e-04 -1.868100001108275246e-02 -1.936999976615250488e-03 -1.794000166816955236e-03 -2.034399998751605654e-02 1.973999988617970193e-03 -1.329999870968085526e-03 -2.028500000956769134e-02 -7.970001569419270845e-04 5.719999191508134137e-04 -2.059499999617202953e-02 7.539996366467829154e-04 3.271000036039800087e-03 -2.100900000742929666e-02
2.610018454212912589e-04 -2.312099996274812400e-02 1.753200002165434049e-02 -2.909998125092126990e-04 -2.487000022117275520e-03 -1.089999959095162634e-04 4.750001447726242263e-04 -1.816999962745118350e-03 1.331999999193027306e-03 -4.520000173053220880e-04 1.369999645585360235e-04 -1.257999997641871337e-03 -2.022100076736323485e-02 1.147799848890703432e-02 1.824700010015189305e-02 1.811699932271336119e-02 1.035800138939176052e-02 1.921999988965041734e-02 9.400333384189847607e-05 -4.186599996257871908e-02 3.034600004130009673e-02 2.020000130933354097e-03 -1.562999844924463757e-03 2.304999990411136200e-03 -7.420000084207433073e-04 1.589999445346149912e-04 6.530000039369114953e-04 9.069999791394751411e-04 1.870000673810099702e-04 -1.217000005193298899e-03 1.565000089014963527e-02 -1.274599882974740937e-02 -1.337600007365405928e-02 -1.580899910271540976e-02 -1.293500121029522720e-02 -1.467299989981613734e-02 -1.043999942123077351e-03 -7.530000787901755359e-04 1.680000065148831061e-04 -4.739999278694116886e-04 -9.230000354282122225e-04 4.210000035383744963e-04 1.764000080040699489e-03 -1.076999866843935099e-03 -2.560000086612350748e-04 -2.449996363696381138e-04 -4.952000020500182086e-03 -1.972999993701199037e-03 -1.242000620976067490e-03 6.779998029741326994e-04 -1.032089999938215763e-01 -2.195999568987686522e-03 -4.412000148470836443e-03 1.763300001652864588e-02 5.050000500861942868e-03 -5.385999601144210620e-03 1.694199997750467715e-02 -1.611999968908132790e-03 1.050999898094522522e-03 2.003300000784818610e-02 -1.767000108754904512e-03 2.942999886959166232e-03 2.062100000681389017e-02 4.544000003871217878e-03 1.388000363360740062e-03 1.971899997353133635e-02 -2.700820435889775408e-05 1.098370000165317800e-01 1.859499989043544160e-02 -2.761999821172165647e-03 -9.340001893127818566e-04 1.960000001617879031e-02 -7.929999662572039844e-04 9.479999591057492901e-04 1.910200000343031251e-02 1.292000091838609163e-03 2.240001173991591841e-04 1.970699999264459781e-02 -1.137999554058045969e-03 -4.289000064068955280e-03 2.202300001056577833e-02 6.420004703712635244e-04 -4.567999928844772468e-03 2.262600000101911910e-02 9.520002827525308542e-04 -2.295999908256187230e-03 1.976599999703851709e-02 -3.659997898202999186e-04 -1.293000007342538131e-03 2.036100000331181673e-02 5.350000656788630581e-04 5.650000600801283364e-04 1.963999999648251282e-02 -1.116999571297790355e-03 -4.206000064464488972e-03 2.003700001036695308e-02 1.377600053489726369e-02 -6.715998953238037916e-03 4.884999930666924714e-03 4.179996271133344676e-04 3.284000009080773486e-03 -2.255800000558761190e-02 -1.381000176005034615e-03 8.749998756799581270e-04 -1.989699999325109797e-02 -1.282299943826083720e-02 -7.102000965352781026e-03 4.459000077875127643e-03 2.329989533133185252e-04 1.415000002187103041e-02 4.253999984579771507e-03 -9.045999977754957608e-03 -1.273000697548244036e-03 -1.341199994879581706e-02 7.144999946049983980e-03 -1.969994720808000721e-04 -1.247300003924258806e-02 1.683000017082382418e-03 -1.752999893614771466e-03 -2.092400000753888781e-02 -3.760002912133997266e-04 2.366999951259844606e-03 -2.032600000028887688e-02 -1.640000101937471883e-03 -5.500014323303514856e-05 -1.922099999089249903e-02 -3.599925723886453975e-05 -1.232900003704805875e-02 -3.436399998748613377e-02 2.049999919430783944e-03 -2.989998636299767655e-04 -1.869300001101703926e-02 -1.938999976183548336e-03 -1.800000166972211182e-03 -2.034799998749902555e-02 1.979999988833821330e-03 -1.332999870516301697e-03 -2.028700000959781161e-02 -7.970001569308874127e-04 5.719999191528111647e-04 -2.059299999617203100e-02 7.499996381058372666e-04 3.252000035741274640e-03 -2.100500000738823869e-02
2.590018395558270087e-04 -2.304599996293434788e-02 1.749700002159046419e-02 -2.899998128117337037e-04 -2.483000022041645383e-03 -1.089999959190316283e-04 4.750001443613537620e-04 -1.811999962751111590e-03 1.325999999188032675e-03 -4.480000175101334190e-04 1.399999648650525461e-04 -1.253999997666947318e-03 -2.016400076460685142e-02 1.143899849318299675e-02 1.821200009987621743e-02 1.805899932513962275e-02 1.032300138496525244e-02 1.917999989000552727e-02 9.900332426725614069e-05 -4.174399996226349496e-02 3.028300004115063587e-02 2.010000130457492967e-03 -1.556999845684761902e-03 2.300999990460341101e-03 -7.430000081237420843e-04 1.549999444579858426e-04 6.520000039464267545e-04 8.999999790047741267e-04 1.890000668545947901e-04 -1.214000005156657671e-03 1.560600088758701959e-02 -1.270999883304617210e-02 -1.334700007344714369e-02 -1.575799910503457649e-02 -1.290200120640611937e-02 -1.464099990013061243e-02 -1.038999942215267048e-03 -7.520000784150208516e-04 1.650000064862849512e-04 -4.759999285556039427e-04 -9.140000355804716106e-04 4.200000035404243188e-04 1.758000079516807649e-03 -1.069999867296717597e-03 -2.550000086351081091e-04 -2.479996372496019318e-04 -4.940000020722079381e-03 -1.967999993696626076e-03 -1.244000620351747282e-03 6.749998028947913620e-04 -1.031369999938075432e-01 -2.194999568788394851e-03 -4.415000148400200636e-03 1.762800001652612206e-02 5.050000500850903087e-03 -5.385999601146209022e-03 1.693999997750467862e-02 -1.609999968941252082e-03 1.050999898239789784e-03 2.002700000783714726e-02 -1.772000108275171518e-03 2.935999886572025330e-03 2.061200000684848196e-02 4.537000004749534333e-03 1.375000362812349745e-03 1.969999997358296007e-02 -2.200819789333459614e-05 1.097510000169029387e-01 1.858799989049374560e-02 -2.759999820757022635e-03 -9.400001891685133993e-04 1.959300001617374568e-02 -7.949999662367723515e-04 9.469999589445001051e-04 1.909200000344235190e-02 1.288000091545480263e-03 2.270001170846516140e-04 1.969499999266368165e-02 -1.135999554378774390e-03 -4.286000063934675142e-03 2.200600001055174129e-02 6.480004704452460487e-04 -4.569999928404976097e-03 2.261200000098799803e-02 9.500002825350320436e-04 -2.293999908419434419e-03 1.975399999704756035e-02 -3.659997897998682370e-04 -1.294000007352526802e-03 2.035100000331281286e-02 5.350000652455131961e-04 5.700000600701395949e-04 1.962999999647752070e-02 -1.113999571725620471e-03 -4.201000064246587958e-03 2.002800001034539881e-02 1.376300053486414349e-02 -6.715998954227224080e-03 4.878999930738683356e-03 4.219996302450697246e-04 3.245000009416257325e-03 -2.252500000557073473e-02 -1.376000175782016166e-03 8.729998760710947457e-04 -1.988399999327669643e-02 -1.281999943861855847e-02 -7.098000965135879345e-03 4.449000077854572445e-03 2.269989542098419032e-04 1.413800002141525104e-02 4.251999984624876654e-03 -9.017999977703630363e-03 -1.272000695407622456e-03 -1.338899994895137273e-02 7.143999946461254691e-03 -2.019994721504370626e-04 -1.246700003923207484e-02 1.663000016517627092e-03 -1.743999895106400442e-03 -2.090300000743747916e-02 -3.770002910604915202e-04 2.365999951198198472e-03 -2.031200000028235766e-02 -1.625000101649862498e-03 -5.800014208759363078e-05 -1.920999999097230265e-02 -3.299925718201827647e-05 -1.232800003679719592e-02 -3.433999998750369986e-02 2.031999920522726665e-03 -3.129998649853281043e-04 -1.868700001090369683e-02 -1.935999975895939243e-03 -1.803000166734332853e-03 -2.033699998751258703e-02 1.978999989045800070e-03 -1.334999870580944265e-03 -2.027600000959029272e-02 -7.940001568536095289e-04 5.719999193936861929e-04 -2.057899999618859055e-02 7.449996399998891176e-04 3.229000035391092066e-03 -2.097700000733766432e-02
2.510018332216693319e-04 -2.296399996356336334e-02 1.747300002155271342e-02 -2.769998147930322475e-04 -2.456000021047463969e-03 -9.799999601775940703e-05 4.590001440477931060e-04 -1.807999963963193360e-03 1.323999999272355149e-03 -4.390000180693690176e-04 1.489999655677001235e-04 -1.231999997725615999e-03 -2.009600076054819315e-02 1.138299849829389233e-02 1.818000009955680549e-02 1.800899932877045653e-02 1.027200138114278509e-02 1.913899989033246429e-02 1.020033121874233114e-04 -4.158799996208754901e-02 3.023200004097824703e-02 2.002000129511290454e-03 -1.544999846296796122e-03 2.293999990492513654e-03 -7.390000090202654024e-04 1.669999447625046161e-04 6.540000039123607372e-04 9.009999788479938548e-04 1.910000669292261663e-04 -1.215000005164175228e-03 1.556300088466998181e-02 -1.266799883625132662e-02 -1.330000007325174254e-02 -1.569699910901043230e-02 -1.284600120174572702e-02 -1.459399990052325999e-02 -1.041999941027262457e-03 -7.680000786459070805e-04 1.610000065188265587e-04 -4.799999281884923170e-04 -9.190000358849904037e-04 4.180000035674981537e-04 1.751000079797249056e-03 -1.073999867830124997e-03 -2.590000085924736364e-04 -2.399996381996762020e-04 -4.927000020111043863e-03 -1.961999993753770540e-03 -1.244000619403403231e-03 6.709998030116600190e-04 -1.030199999938035405e-01 -2.191999568528384991e-03 -4.418000148167317009e-03 1.763400001651255905e-02 5.038000501255006196e-03 -5.391999602062761375e-03 1.693099997757691044e-02 -1.596999968581308028e-03 1.044999899206001991e-03 2.001000000777138424e-02 -1.767000109313563317e-03 2.948999886940187852e-03 2.060200000680789678e-02 4.532000005050407579e-03 1.370000362420214189e-03 1.968599997361555193e-02 -2.700818750051787171e-05 1.096130000165167900e-01 1.857999989065918858e-02 -2.756999821013160663e-03 -9.380001889606013211e-04 1.957400001615518942e-02 -7.909999655356682573e-04 9.369999592370323533e-04 1.908200000343025782e-02 1.287000091933023426e-03 2.210001169970348409e-04 1.968299999267519168e-02 -1.135999554164570952e-03 -4.290000063950657680e-03 2.199000001055573597e-02 6.510004706042507670e-04 -4.573999928204054884e-03 2.258600000097543345e-02 9.490002823600442823e-04 -2.292999908513044301e-03 1.973599999705208038e-02 -3.619997905318669655e-04 -1.286000007072980256e-03 2.032800000328274098e-02 5.280000661553007875e-04 5.560000595137581415e-04 1.960299999653013908e-02 -1.109999572040828953e-03 -4.198000063960049405e-03 2.001200001032032300e-02 1.375300053447330549e-02 -6.711998954999509430e-03 4.862999930789886800e-03 4.139996345498978881e-04 3.191000008851170057e-03 -2.248500000547263775e-02 -1.374000174719896975e-03 8.609998762503239152e-04 -1.985599999327574902e-02 -1.280499943931027139e-02 -7.089000964003422910e-03 4.447000077762785358e-03 2.229989543760142745e-04 1.413500002110174361e-02 4.240999984649953224e-03 -8.984999976944033073e-03 -1.280000692883855647e-03 -1.336099994912553698e-02 7.134999947143574016e-03 -2.099994728171250991e-04 -1.245300003917440557e-02 1.648000014238750529e-03 -1.709999896187913617e-03 -2.085000000738864226e-02 -3.750002911344740668e-04 2.367999951363442858e-03 -2.029800000029539225e-02 -1.610000100467378226e-03 -7.400014095813410434e-05 -1.921499999103911532e-02 -3.699925792398567944e-05 -1.231600003706975061e-02 -3.430999998749360153e-02 2.015999921133289092e-03 -3.209998661944133227e-04 -1.868600001080739093e-02 -1.927999975514492655e-03 -1.806000166101322463e-03 -2.030899998755374830e-02 1.970999989469758053e-03 -1.338999871164010943e-03 -2.025400000954213908e-02 -7.890001549060067379e-04 5.479999197958105575e-04 -2.055499999619221987e-02 7.399996427424333605e-04 3.195000035043905635e-03 -2.094600000727610267e-02
