-4.702363906499999757e+02
-4.702363915399999996e+02
-4.702363932299999760e+02
-4.702363958099999763e+02
-4.702363993399999913e+02
-4.702364038200000209e+02
