-4.702363308100000268e+02
-4.702363324099999886e+02
-4.702363356000000181e+02
-4.702363404600000081e+02
-4.702363470999999890e+02
-4.702363554099999874e+02
