-4.702363306600000215e+02
-4.702363322799999992e+02
-4.702363354600000207e+02
-4.702363403300000186e+02
-4.702363469599999917e+02
-4.702363555100000099e+02
