3.372000616196855691e-03 6.000366614760962953e-06 1.117149999813810551e-01 -1.720229999765519879e-01 -3.690130109509016021e-04 -8.079990500893151828e-04 3.577999984723913198e-03 2.530002713032760385e-04 6.989999799972412961e-04 -1.339999753065557479e-04 -3.800000108666302077e-04 -7.329999988807663156e-04 1.159999798208912505e-04 2.220000081597988480e-04 -6.140000008620537719e-04 5.200000947907451945e-04 -1.330999961735067046e-03 -1.064000001540820264e-03 9.659998826843681349e-04 1.600000073727072918e-03 6.689999930696171899e-04 -3.530000001375834277e-04 1.699997351028539644e-05 2.080000019315280855e-04 -3.429999872763203487e-04 -1.170000252399664597e-04 7.020000020101790656e-04 -1.499999268297849488e-05 -5.500000056309612117e-05 5.720000001377360940e-04 8.600001383605284440e-05 -1.319999927985814037e-04 6.979999996571442092e-04 -1.699998203484786783e-05 -2.290000011688451411e-04 1.170000003225802579e-04 1.176999868294846150e-03 1.711000088600276702e-03 -4.170000082059475304e-04 7.300001105581704376e-04 -1.459999944764935574e-03 2.499999742886515429e-05 -9.800000689644115153e-05 1.259999930646986540e-04 4.770000004150873915e-04 -5.430000167739328001e-04 1.579999580597512459e-04 -8.739999971605409658e-04 3.784997947602986110e-03 2.733000028889847818e-02 2.640999951808053157e-03 6.280000000172745490e-03 1.542000496093249564e-03 2.115899996379504155e-02 3.815999909119853657e-03 2.629000308140090961e-03 1.955699997631018747e-02 -2.891999992316682516e-03 1.446999802471460620e-03 2.121800001451804724e-02 -2.189999815216655339e-04 1.131000002259806552e-03 1.884400000007912038e-02 6.700007979305228122e-05 3.740000246252357533e-04 1.957999999925659138e-02 1.940000912546609179e-04 2.180000341693474593e-04 1.951899999871139352e-02 -3.589998499611842084e-04 -5.070000069389871090e-04 2.023500000248805789e-02 7.170001577713061916e-04 -6.749999264608175882e-04 1.933399999671650549e-02 1.307000213914577677e-03 -1.310999880383599981e-03 2.079099999409507807e-02 5.000015576628249748e-05 -6.489999769131915477e-04 1.932700000037227903e-02 1.320000234258952290e-03 -1.559999879126713548e-03 2.106499999427203715e-02 5.663100004220218003e-02 1.037004304846572906e-03 2.185399968636922777e-02 3.299900124927648143e-02 -1.658199750515009646e-02 -8.740001655863412905e-04 1.244000190236622559e-03 -1.111999886709551287e-03 1.922799999424404729e-02 -2.343199894016594759e-02 -1.382900176964499406e-02 2.526000143154716413e-03 6.673001944961237317e-03 -2.987099955217527650e-02 -5.692000000699655449e-02 3.118699876923610240e-02 1.621300235785372995e-02 -8.280001883425172149e-04 3.051999830013984744e-03 7.190002099030665204e-04 -2.094400001756479071e-02 2.652000092790590680e-02 -1.501699803189523660e-02 -3.765200013138643442e-02 1.307000212920015171e-03 -4.205999920184839980e-03 -1.905500000301317554e-02 -5.360000608481657169e-04 -7.320000615671711864e-04 -2.105299999631017951e-02 1.313999791848226252e-03 1.301000079516486784e-03 -1.988400000855262625e-02 1.299999938812316548e-03 -7.269999227030260556e-04 -2.104600000644962776e-02 -6.470000592509499637e-04 -7.040000692898856598e-04 -2.037999999572544241e-02 4.709998813858030952e-04 2.800001454055441887e-05 -2.110500000262782033e-02 3.659998376325459429e-04 6.460000071397679249e-04 -2.056400000266554035e-02 -5.070002224704383024e-04 1.387999940393361709e-03 -2.128599999858787201e-02 1.278999795141849780e-03 1.310000077588618873e-03 -1.916400000836842449e-02 3.810000013190713297e-03 -1.665999732262760666e-03 -2.043700001936652258e-02 2.095999784823590097e-03 1.443000139331591892e-03 -1.921100001301099397e-02 3.780997494915030750e-03 3.036900024826929417e-02 -3.773100005120545719e-02
3.367000616062731412e-03 5.000366198652355984e-06 1.116769999814096470e-01 -1.719349999765630299e-01 -3.690130042974367136e-04 -8.099990505750624160e-04 3.573999984794023685e-03 2.520002709997561097e-04 6.979999800203197076e-04 -1.329999754633361011e-04 -3.780000107919988315e-04 -7.339999988882838725e-04 1.169999798910016420e-04 2.210000082344302055e-04 -6.150000008665748108e-04 5.200000946339648983e-04 -1.328999961736066198e-03 -1.065000001542817931e-03 9.649998829112589908e-04 1.597000073651442479e-03 6.689999930781337064e-04 -3.530000002132136850e-04 1.799997351028539703e-05 2.080000019305291829e-04 -3.419999872873601045e-04 -1.170000251663339533e-04 7.000000020046591269e-04 -1.399999253171798146e-05 -5.700000048746585831e-05 5.720000001342139548e-04 8.500001375490274049e-05 -1.309999928752105392e-04 6.969999996616650911e-04 -1.599998203484786724e-05 -2.290000010932148838e-04 1.170000003170603949e-04 1.174999868521736874e-03 1.708000088449016223e-03 -4.170000081919112323e-04 7.280001102501295783e-04 -1.455999944917195192e-03 2.399999743590936090e-05 -9.800000682081089426e-05 1.249999930646986568e-04 4.770000004160862670e-04 -5.390000168606028487e-04 1.589999583602745212e-04 -8.759999971836193418e-04 3.779997949331442234e-03 2.730700028851833217e-02 2.638999951858626153e-03 6.274000000246727181e-03 1.540000495625483716e-03 2.114499996383015917e-02 3.809999909490837788e-03 2.623000307671326248e-03 1.954199997634929742e-02 -2.886999992242699799e-03 1.444999802835627819e-03 2.120400001449244606e-02 -2.179999814366432697e-04 1.129000002323450255e-03 1.883200000007559730e-02 6.700007993714524360e-05 3.710000246102526569e-04 1.956499999925958438e-02 1.930000911017526900e-04 2.190000340797329157e-04 1.950499999871591408e-02 -3.579998501897226721e-04 -5.050000068773411680e-04 2.022100000248053947e-02 7.150001576940283321e-04 -6.749999266260623592e-04 1.931999999672754514e-02 1.307000213761669609e-03 -1.309999880397584105e-03 2.077699999409407874e-02 5.200015554326384651e-05 -6.469999767749164740e-04 1.931400000035924172e-02 1.318000233938223771e-03 -1.556999879294955090e-03 2.104799999428008314e-02 5.659200004241638632e-02 1.033004301881010984e-03 2.183799968658849816e-02 3.296700124801837245e-02 -1.656499750756527251e-02 -8.690001654266867612e-04 1.244000190100273944e-03 -1.110999886720539110e-03 1.921699999424305444e-02 -2.341299894108454793e-02 -1.381700176821001533e-02 2.524000143037853031e-03 6.661001943754449317e-03 -2.985299955305487432e-02 -5.689200000694829423e-02 3.115699877048317551e-02 1.619600235557782861e-02 -8.350001881599406666e-04 3.049999830166892547e-03 7.180002097657902380e-04 -2.093000001755275161e-02 2.650100092725448178e-02 -1.500699803331323294e-02 -3.763300013129155380e-02 1.307000212440281948e-03 -4.198999920175849714e-03 -1.904600000302016788e-02 -5.370000610734087425e-04 -7.280000616288171984e-04 -2.103899999630865283e-02 1.312999792163434699e-03 1.298000079456838353e-03 -1.986800000854411358e-02 1.298999938878554880e-03 -7.269999227666698073e-04 -2.103400000644410975e-02 -6.450000593249325103e-04 -7.020000691246410570e-04 -2.036599999573848047e-02 4.699998815111120680e-04 2.700001447391405711e-05 -2.109600000262130265e-02 3.629998377043040618e-04 6.460000069258625341e-04 -2.055100000264898155e-02 -5.060002224743106146e-04 1.388999940481977589e-03 -2.127299999859439197e-02 1.277999795261639026e-03 1.309000077520979704e-03 -1.915600000836190434e-02 3.804000013057660511e-03 -1.662999732699561254e-03 -2.042000001933639772e-02 2.093999784954418773e-03 1.442000139190320000e-03 -1.920100001299895540e-02 3.776997496678253467e-03 3.034700024798474977e-02 -3.771300005116140497e-02
3.362000615610102796e-03 5.000365738593163229e-06 1.115949999814372512e-01 -1.717389999766331388e-01 -3.680129894729072815e-04 -8.089990516579530049e-04 3.573999984875173615e-03 2.510002710007549608e-04 6.989999800213184990e-04 -1.299999753877058252e-04 -3.790000105651080298e-04 -7.339999989038445589e-04 1.179999800422621537e-04 2.190000083100604683e-04 -6.150000008700968416e-04 5.200000945583346411e-04 -1.327999961736066065e-03 -1.065000001543816915e-03 9.649998829979289199e-04 1.596000073653440314e-03 6.709999930791326304e-04 -3.520000001320635675e-04 1.699997358691452917e-05 2.090000019260082468e-04 -3.429999873574704960e-04 -1.160000252409653380e-04 7.010000020091801658e-04 -1.199999246160758601e-05 -5.800000033720421644e-05 5.710000001241731342e-04 8.300001368479232471e-05 -1.299999930254721540e-04 6.979999996717060201e-04 -1.599998216954881650e-05 -2.270000010902182360e-04 1.200000003150626492e-04 1.173999868591847108e-03 1.707000088372386849e-03 -4.180000081853924910e-04 7.290001102611693828e-04 -1.455999944839567184e-03 2.599999743038950247e-05 -9.600000673414093016e-05 1.239999932179569251e-04 4.790000004060454108e-04 -5.390000169362331060e-04 1.599999583602745184e-04 -8.759999971846182173e-04 3.776997950996955483e-03 2.728600028830542590e-02 2.652999951896162223e-03 6.265000000348309658e-03 1.538000494935821798e-03 2.113599996388183105e-02 3.806999909684609471e-03 2.620000307438442259e-03 1.953599997636885563e-02 -2.883999992054448076e-03 1.441999803055526389e-03 2.119700001447888393e-02 -2.169999813830924130e-04 1.128000002395085095e-03 1.882800000007107608e-02 6.700007982287599958e-05 3.720000246032604987e-04 1.955799999925858512e-02 1.920000911387439904e-04 2.180000339971105059e-04 1.949799999872243311e-02 -3.579998503095117792e-04 -5.040000068853321474e-04 2.021300000247953921e-02 7.130001575963185742e-04 -6.739999267813183512e-04 1.931599999673758519e-02 1.306000213636360641e-03 -1.308999880482204434e-03 2.076799999409859737e-02 5.000015545107403296e-05 -6.459999769291735906e-04 1.931100000036927930e-02 1.317000233672694070e-03 -1.553999879377577402e-03 2.104099999428260537e-02 5.652100004285747631e-02 1.026004296495280649e-03 2.182199968698740264e-02 3.291900124636331498e-02 -1.654099751116655873e-02 -8.400001651857068362e-04 1.243000189997044320e-03 -1.109999886801163720e-03 1.921199999424757360e-02 -2.339099894197942120e-02 -1.380400176653016897e-02 2.540000142903430565e-03 6.641001941351911027e-03 -2.981699955450954273e-02 -5.683400000687386516e-02 3.111499877203664777e-02 1.617400235238138084e-02 -8.550001879061313757e-04 3.046999830281161854e-03 7.170002095458916785e-04 -2.092300001753519614e-02 2.647400092633917651e-02 -1.499299803532927987e-02 -3.760700013115650386e-02 1.308000212176399848e-03 -4.194999920093227773e-03 -1.903900000302968451e-02 -5.370000612506208287e-04 -7.250000616198273547e-04 -2.102999999631165184e-02 1.310999792283224028e-03 1.297000079313568926e-03 -1.986000000853207353e-02 1.295999938939273489e-03 -7.269999229825729490e-04 -2.102300000642754949e-02 -6.440000593508841660e-04 -7.010000690400208963e-04 -2.035699999574500096e-02 4.699998814851604964e-04 2.800001448290394363e-05 -2.108700000262230326e-02 3.609998379107631035e-04 6.440000067845909424e-04 -2.054100000263594378e-02 -5.060002221977410487e-04 1.385999940490967612e-03 -2.126399999859139925e-02 1.274999795403507566e-03 1.308000077306075521e-03 -1.914400000834434734e-02 3.802000013031708349e-03 -1.661999732841831865e-03 -2.041100001932635508e-02 2.090999785074207536e-03 1.441000138971420316e-03 -1.919300001298139893e-02 3.772997498788156333e-03 3.032100024770820190e-02 -3.768700005111334794e-02
3.355000614833450988e-03 6.000365082323990463e-06 1.114679999814748856e-01 -1.714479999766866658e-01 -3.670129674605067827e-04 -8.049990532652298277e-04 3.565999984718393450e-03 2.530002703947140759e-04 6.979999800634796277e-04 -1.319999755279266623e-04 -3.770000107143707990e-04 -7.319999988948026979e-04 1.209999801178924026e-04 2.180000085369512429e-04 -6.150000008856575280e-04 5.190000943480035153e-04 -1.324999961808699623e-03 -1.062000001541293578e-03 9.609998832838903982e-04 1.592000073347922670e-03 6.679999931052075113e-04 -3.470000002132137018e-04 1.799997396406694062e-05 2.080000018974100591e-04 -3.429999872117298174e-04 -1.180000252419641943e-04 7.000000020111778925e-04 -1.199999268297850497e-05 -5.500000033620534937e-05 5.720000001211765321e-04 8.600001374386302526e-05 -1.309999928015780329e-04 6.949999996561452608e-04 -1.699998219162823858e-05 -2.270000011698439951e-04 1.160000003205825098e-04 1.170999868672997291e-03 1.706000088146495145e-03 -4.170000081678340294e-04 7.280001101043889538e-04 -1.453999944916196160e-03 2.499999743391160718e-05 -9.500000667507025112e-05 1.229999932905905858e-04 4.760000004015244859e-04 -5.370000168440433467e-04 1.589999585145316621e-04 -8.729999971946589407e-04 3.769997953942663335e-03 2.724800028778899888e-02 2.665999951972758495e-03 6.256000000374261662e-03 1.537000494246159362e-03 2.112699996393251067e-02 3.799999909861821387e-03 2.617000306900040506e-03 1.952699997641048693e-02 -2.878999991969426013e-03 1.439999803421691121e-03 2.118500001445328129e-02 -2.179999812759907726e-04 1.126000002311463785e-03 1.882000000007859331e-02 6.800007992997766156e-05 3.700000246708997579e-04 1.954999999925506604e-02 1.940000910189548507e-04 2.190000341403800139e-04 1.948999999871039307e-02 -3.589998504513803083e-04 -5.030000069729488859e-04 2.020100000248406177e-02 7.150001573788198608e-04 -6.719999266420442936e-04 1.930399999672454889e-02 1.303000213343231441e-03 -1.305999880721081747e-03 2.075599999411216132e-02 5.100015532576506692e-05 -6.449999768625331881e-04 1.930200000036276162e-02 1.313000233547385355e-03 -1.552999879689088286e-03 2.103199999430368367e-02 5.642700004361601157e-02 1.014004289359066646e-03 2.179499968751825306e-02 3.286200124426000291e-02 -1.651099751544751748e-02 -8.100001649010412372e-04 1.241000189801624853e-03 -1.107999886960415190e-03 1.920399999425661391e-02 -2.335899894343683447e-02 -1.378400176410001128e-02 2.550000142706817900e-03 6.618001937934708291e-03 -2.976699955618310883e-02 -5.676800000679684682e-02 3.105699877417695057e-02 1.614300234795786743e-02 -8.920001875550145941e-04 3.042999830460021721e-03 7.150002092483651950e-04 -2.091800001751111665e-02 2.643900092497560722e-02 -1.497299803794936886e-02 -3.758000013098328207e-02 1.305000211744697901e-03 -4.188999920316123331e-03 -1.903500000301911604e-02 -5.360000611418714233e-04 -7.260000615382038690e-04 -2.102399999631617347e-02 1.307999792473123375e-03 1.295000079093670126e-03 -1.985300000851351540e-02 1.294999938821131966e-03 -7.249999230522099049e-04 -2.101700000642402894e-02 -6.430000593288046897e-04 -7.010000689603951372e-04 -2.035299999575052032e-02 4.709998816159892995e-04 2.700001456852297525e-05 -2.107700000262682088e-02 3.599998378572123281e-04 6.450000067129561029e-04 -2.053700000263142256e-02 -5.040002221480623145e-04 1.385999940651217897e-03 -2.125499999860243350e-02 1.271999795484657532e-03 1.307000077080183601e-03 -1.914300000832678747e-02 3.796000012697716038e-03 -1.656999733287622392e-03 -2.040300001929823415e-02 2.088999785253067669e-03 1.439000138825154021e-03 -1.918800001296836269e-02 3.768997502032513276e-03 3.028000024743165292e-02 -3.766100005105031678e-02
3.350000613810630041e-03 5.000364505396202950e-06 1.112689999815034969e-01 -1.710069999767032389e-01 -3.670129341105597925e-04 -8.079990556994860393e-04 3.553999984934244367e-03 2.500002694851532190e-04 6.959999801327144530e-04 -1.289999760407788826e-04 -3.700000104844833933e-04 -7.289999989183544235e-04 1.189999799666319072e-04 2.200000083856907228e-04 -6.150000008766156072e-04 5.170000936507715894e-04 -1.315999961962956979e-03 -1.065000001539243750e-03 9.679998836344424042e-04 1.587000073872340405e-03 6.629999930715628617e-04 -3.500000003534344548e-04 1.999997373917391754e-05 2.100000019119718916e-04 -3.359999875694494147e-04 -1.140000247225411863e-04 6.900000019685433505e-04 -2.099999222367707489e-05 -6.100000101587877251e-05 5.730000001768484948e-04 8.400001360364221521e-05 -1.289999929508407750e-04 6.969999996651872302e-04 -1.399998226725850424e-05 -2.260000009429532261e-04 1.160000003030240589e-04 1.172999869575040537e-03 1.694000088296756601e-03 -4.180000081668872741e-04 7.240001102131383461e-04 -1.454999945212723852e-03 3.099999745698990767e-05 -9.700000659392011171e-05 1.219999931403289225e-04 4.770000004135630575e-04 -5.340000165360023546e-04 1.549999587424213206e-04 -8.719999972072230848e-04 3.763997957417783338e-03 2.720300028734820574e-02 2.678999952050827114e-03 6.248000000778363566e-03 1.531000493632127604e-03 2.111799996398266294e-02 3.787999910228933252e-03 2.612000305990480088e-03 1.952499997648172309e-02 -2.874999992111294637e-03 1.440999803712225561e-03 2.117300001443020441e-02 -2.179999814603704109e-04 1.128000002305470581e-03 1.881400000007659584e-02 6.500008011270959200e-05 3.670000244360179095e-04 1.954199999927462225e-02 1.930000913584671530e-04 2.140000340577576424e-04 1.948299999872090890e-02 -3.559998504143889919e-04 -5.040000067530502666e-04 2.019400000246850124e-02 7.170001575946707926e-04 -6.749999264927816029e-04 1.930199999671650471e-02 1.296000213428253863e-03 -1.307999881262479885e-03 2.074399999415279736e-02 4.700015549193744505e-05 -6.479999771760419202e-04 1.929100000038783819e-02 1.312000233399997044e-03 -1.551999879777704117e-03 2.101899999430820523e-02 5.631300004426578742e-02 1.003004280704254594e-03 2.176199968815850649e-02 3.277400124086322919e-02 -1.646199752204704353e-02 -7.540001644642389984e-04 1.236000189595166075e-03 -1.105999887348555182e-03 1.919399999428221537e-02 -2.331899894502894102e-02 -1.376200176106181540e-02 2.563000142464048111e-03 6.586001932906614988e-03 -2.969299955850039641e-02 -5.666500000669413145e-02 3.097199877775809809e-02 1.609200234147934935e-02 -9.420001870348842371e-04 3.035999830391559063e-03 7.170002087339363579e-04 -2.090300001747447817e-02 2.638600092282590917e-02 -1.494099804190882758e-02 -3.753100013072269842e-02 1.300000210800143557e-03 -4.175999920687283040e-03 -1.902800000300450267e-02 -5.340000613560747043e-04 -7.220000613709613583e-04 -2.100799999633120793e-02 1.308999792884393918e-03 1.290000079175293623e-03 -1.984700000851404023e-02 1.289999938665999319e-03 -7.219999234173758457e-04 -2.100400000639942449e-02 -6.410000595170563991e-04 -6.980000688021425299e-04 -2.034599999576455764e-02 4.669998816987871743e-04 2.700001428098509844e-05 -2.106200000260474367e-02 3.569998382425311478e-04 6.410000065010484742e-04 -2.052200000261086843e-02 -4.980002217091926333e-04 1.380999941115987166e-03 -2.124399999863055971e-02 1.274999795685596805e-03 1.305000077316064312e-03 -1.913400000834135015e-02 3.783000012585094763e-03 -1.654999734263823668e-03 -2.039600001922847392e-02 2.082999785736096721e-03 1.434000138390351424e-03 -1.916900001293024569e-02 3.763997506608390917e-03 3.022300024710144681e-02 -3.761300005096578081e-02
3.333000613173704978e-03 -2.999637005065455239e-06 1.110439999816053153e-01 -1.704719999771294459e-01 -3.610128936433776325e-04 -8.029990586586020513e-04 3.539999985203646799e-03 2.460002684203363757e-04 6.899999802139879452e-04 -1.379999748086153163e-04 -3.860000111611601621e-04 -7.249999988526935248e-04 1.419999805716739010e-04 2.120000101251866623e-04 -6.150000009955813168e-04 5.100000931969900925e-04 -1.309999962492368851e-03 -1.065000001506597989e-03 9.639998847192175887e-04 1.572000073560829349e-03 6.539999931086254437e-04 -3.459999992907387988e-04 4.999974028709590633e-06 1.970000019048756079e-04 -3.419999867358689059e-04 -1.240000251623384455e-04 7.040000020116512439e-04 -9.999927680007849665e-07 -5.299999949228599919e-05 5.840000000584602818e-04 8.800001309630980093e-05 -1.219999926443242772e-04 7.009999996361156388e-04 -1.599998240747930073e-05 -2.240000010922159953e-04 1.180000003120660148e-04 1.151999870034342219e-03 1.688000086709520470e-03 -4.170000080449770097e-04 7.320001097317575464e-04 -1.448999944612676350e-03 2.599999740683780220e-05 -9.500000753460236891e-05 1.339999932855961506e-04 4.710000003905368427e-04 -5.270000161948423583e-04 1.509999592788252879e-04 -8.649999972418665351e-04 3.750997963283247277e-03 2.712800028639996905e-02 2.713999952197500894e-03 6.233000001595961036e-03 1.518000492467707491e-03 2.108799996407844518e-02 3.781999911182879447e-03 2.598000305517719679e-03 1.950599997652882611e-02 -2.868999990839915006e-03 1.421999804136040921e-03 2.114300001441606069e-02 -2.239999808216324708e-04 1.117000001816728346e-03 1.877900000012070261e-02 6.900007976438198574e-05 3.700000247165636971e-04 1.951999999924954390e-02 1.910000906965788627e-04 2.210000338825240430e-04 1.945899999872495803e-02 -3.579998509857352336e-04 -4.990000069392715176e-04 2.015900000247454818e-02 7.150001565435915984e-04 -6.629999266700128046e-04 1.927599999671555930e-02 1.300000211594920345e-03 -1.284999880976940047e-03 2.072699999410774346e-02 5.000015437239543008e-05 -6.339999769601387634e-04 1.928000000035729258e-02 1.300000232269415230e-03 -1.537999880698252570e-03 2.100599999436045945e-02 5.613000004551895600e-02 9.830042668169702066e-04 2.171499968918861809e-02 3.266600123698120556e-02 -1.640599753015118192e-02 -6.900001639240316504e-04 1.230000189848008381e-03 -1.109999887811326811e-03 1.918499999431933292e-02 -2.324199894797357446e-02 -1.372000175519633332e-02 2.605000141997066559e-03 6.532001927994437324e-03 -2.961899956246057120e-02 -5.654100000646997137e-02 3.085499878251621655e-02 1.602500233257467613e-02 -9.980001863221362943e-04 3.032999831614330549e-03 7.020002085230277709e-04 -2.088700001744293183e-02 2.633500092193985162e-02 -1.492599804572102007e-02 -3.748600013045616519e-02 1.304000210661570474e-03 -4.172999920368779606e-03 -1.901200000302958118e-02 -5.370000612346379539e-04 -7.220000615758767615e-04 -2.098599999631465055e-02 1.295999793282400208e-03 1.287000078223065561e-03 -1.981600000843928774e-02 1.294999938787436047e-03 -7.219999230172491908e-04 -2.098200000642702623e-02 -6.410000599785822904e-04 -6.900000687761715734e-04 -2.031999999577254953e-02 4.779998817335540107e-04 2.800001513289546528e-05 -2.104200000266646248e-02 3.519998369474248057e-04 6.590000061348836972e-04 -2.051000000260124953e-02 -5.050002224196887017e-04 1.391999940608550567e-03 -2.122199999860291050e-02 1.266999795449314046e-03 1.309000076723008856e-03 -1.912200000830118624e-02 3.774000011738250140e-03 -1.642999734933508387e-03 -2.038500001919078125e-02 2.082999785865277675e-03 1.432000138386355873e-03 -1.917300001292824782e-02 3.747997512123303274e-03 3.015300024593131623e-02 -3.757300005080754096e-02
