-3.329134706869157911e-02 1.464249907825265415e-02 3.336143678103944965e-02 -3.115395631521251929e-02 -1.249334238406137228e-02 -2.587109151126883166e-02 -3.201134242859672054e-03 2.740493214233621607e-04 3.301865764778851541e-03 3.988631543142957228e-04 3.340474241878507201e-04 3.367011509116639954e-03 -1.119140015641826398e-03 -6.469505506351621183e-04 3.425963603195759585e-03 -5.371272322064381960e-04 -8.059555006840258325e-04 3.108989557290183121e-03 -1.014510014227841886e-02 -2.829572641656470612e-04 2.453590896991248490e-03 -2.977134768048846514e-03 1.215049585449015819e-03 3.332861544945261555e-03 -2.872090740245286829e-03 -1.943966687489421825e-03 2.190910609251022802e-03 -3.812398549845430706e-05 6.404321531207835731e-05 3.045997542399239179e-03 -2.512409518454338523e-05 -2.395678068020489485e-05 3.046999319412558790e-03 -5.112267617718516268e-05 2.004275762821710959e-05 3.012997636880443680e-03 -2.125252575793985205e-06 5.804362663647787552e-05 3.076999093387642204e-03 -1.412546949079052121e-05 4.104370692312235515e-05 3.081998845754759919e-03 -1.012538173387756784e-05 1.530437037798468508e-04 3.081997420728656290e-03 2.287289929420075632e-05 3.804424506438155182e-05 3.122000394922358046e-03 -8.612730811248079808e-05 8.504441547299659051e-05 3.127995289989125762e-03 -6.512461198511173849e-05 -7.956565050631918170e-06 3.059997463722213904e-03 1.586999686638979604e-05 1.063045540621400820e-03 3.212985577584252794e-03 1.513933060251673301e-03 6.320222929092284350e-04 1.656052689482664193e-03 -1.547072558252601511e-03 6.300266461964236292e-04 1.793928071184638668e-03 -4.301560941427394003e-04 -1.157945631616784116e-03 3.810998904341415458e-03 4.278424556254567979e-04 -1.188945807201522917e-03 3.846034282309805218e-03 5.872447595252225928e-06 -1.317955954154913928e-03 3.107018927729094087e-03 1.020853131511359480e-03 1.419050722526223138e-03 3.634021454364469526e-03 -2.312561852800505552e-05 -2.123956824567879449e-03 3.044029174160330867e-03 -1.049147858176265350e-03 1.401052683597169392e-03 3.657937417380090119e-03 1.449781643391689565e-02 -1.762630042038803094e-02 -2.038815975360890737e-02 -6.638552726576051315e-04 4.739502595771002665e-04 -3.545033755609598713e-03 -1.406420569788987066e-02 -1.809827047128372002e-02 -1.985431613115147889e-02 -1.952748145813434054e-04 -3.810256638651988298e-02 3.057353228705566098e-02 -1.845867258248976624e-03 -2.299045397793210693e-03 -3.304042572941557135e-03 1.228130428091018817e-03 -1.091046670621545088e-03 -3.223934523857860650e-03 1.210144129397902569e-03 -2.106051703720439837e-03 -3.579920866072324424e-03 -8.178755721217743522e-04 -1.683043140371560465e-03 -3.088009445609698079e-03 2.200896113419368444e-04 -3.605032355491203516e-03 -2.269939928465266807e-03 1.070128355118125062e-03 4.954473782624226577e-06 -3.151956496648028287e-03 -5.187246925402031925e-05 -1.464044760969959637e-03 -3.159981358301011331e-03 -3.287402620779307413e-05 1.485956570746278880e-03 -3.065022409095380113e-03 -8.289275407669508856e-04 1.059975710254909250e-03 -1.759048784379687322e-03 -8.588275321668083911e-04 -1.073059667995197256e-03 -4.256019762514538264e-03 -2.126875677511311236e-03 -4.161937642024417134e-08 -3.053086610412261096e-03 1.788082558999259724e-03 -4.950302801163799973e-04 -2.036920171231695279e-03 -1.316873988280755281e-03 -2.604284906809070329e-05 -3.095053257861963506e-03 1.754170150003987521e-03 4.409395051736200049e-04 -4.169934824144405638e-03 6.412425019982194527e-05 1.395669343318147589e-05 -3.050997589518012268e-03 3.812396830980022898e-05 1.795681303524582646e-05 -3.043998704977702099e-03 4.124934668131282554e-06 3.956499391437770509e-06 -3.067999890975641429e-03 3.312472552988290014e-05 -5.504346659832141692e-05 -3.063997873586632881e-03 -8.872040250304685408e-06 -3.304455376053442054e-05 -3.142999895699737957e-03 8.512621180990517062e-05 -2.904401771737570473e-05 -3.099996124690759282e-03 4.212277719068564243e-05 -4.704279311191587865e-05 -3.015997620565701552e-03 1.541254364895693616e-04 -3.104380236579693940e-05 -3.080993286614167916e-03 3.212437155534666994e-05 -9.104335238933314290e-05 -3.055997403915436221e-03 -3.990197950984569319e-04 -8.379930239362329714e-04 4.699956329092787126e-04 6.629901335871323702e-04 -9.499973432045191171e-04 2.240404665913541254e-04 8.864375922817762602e-05 -1.381922797557101103e-02 -1.607480047910845450e-02 -7.975315928769845936e-03 8.021164624946463834e-04 7.773663873419345630e-03 7.498295380213182047e-05 4.880060093225078023e-04 4.279961349173936496e-04 8.320684188496078187e-03 8.131036602547944388e-04 7.771327304456533518e-03 -1.099732761426336472e-04 -1.420092570232519809e-04 -6.590024654386050871e-04 6.670032478768257245e-04 1.962998882076265415e-03 -4.200067010294819179e-05 -6.909905388054613440e-04 1.783997733667014350e-03 -1.980534310540865857e-04 -8.788446233845810876e-03 8.309816345523584821e-03 -1.343947570028200360e-02 2.189999293417139309e-03 3.599854043510583633e-05 1.808866824772782051e-05 -8.806575038398744767e-03 -8.348795167893110006e-03 1.396075976935413042e-02 5.504001360504093276e-03 2.869952933819546479e-04 -2.777994142754041911e-05 -3.480264759182418051e-04 3.540095872585286626e-04 6.569808096047979580e-04 -2.379806488842142861e-04 -1.970066047910340164e-04 -4.790068980978850967e-04 8.990141008524505858e-04 -7.120058078480971577e-04 -3.599532970526021216e-04 1.049988740987650541e-03 8.070033176889275040e-04 2.920313151671116974e-04 -1.363993490536495297e-03 9.499882790551221349e-05 -1.580568899815759090e-04 7.000137901545059878e-05 9.699949149103875596e-05 -3.199852475373100196e-05 -2.180017476560360153e-04 5.600079451051252847e-05 4.399032885880007926e-05 1.599795845971461984e-05 -6.999303637464653912e-06 5.000075073148221757e-05 4.899859196857570806e-05 2.200045785380821766e-05 3.500168337837249150e-05 -3.400039704370781392e-05 -9.099985994659395589e-05 7.999905660100763084e-06 6.000504341554795518e-06 7.199983933901564828e-05 -1.100077646363735550e-05 -4.599868670851190203e-05 1.299958232706100074e-05 -3.200205744032929038e-05 -1.150012411941004779e-04 -1.809995271367203888e-04 2.699788325220999399e-05 1.189981869778941067e-04 -1.309994976959310143e-04 4.200670302925394340e-05 1.317851314612827895e-01 -6.968010165085637610e-04 2.131837630017386145e-02 -1.105895059836572471e-02 2.343396956918382510e-04 2.334854636952651136e-02 -1.371884374467532801e-02 2.343045759265799030e-04 2.072443805450180365e-02 -1.576538351764135773e-03 1.477189075463810394e-03 1.324891487106574957e-02 -6.690779641957431221e-04 -5.563625678822901530e-03 2.636505165903852213e-02 -1.866888005671183716e-03 -6.168937791723235083e-05 2.180592487364232598e-02 -1.036746564787568992e-03 5.002262107448303234e-03 1.842988687889288157e-02 -1.597859075591896326e-03 -6.616998248509636501e-04 2.108394433488052638e-02 -1.467919509525707905e-03 -4.304679878870563622e-03 2.249800127686903475e-02 2.111445623001143718e-04 8.529769529903185763e-05 2.100900740818061052e-02 -4.886541103069441216e-05 -6.669867008016635266e-05 2.125099897555440126e-02 -4.584701610858233300e-05 7.529496172641186066e-05 2.080199708489193638e-02 3.715162823129214653e-05 -4.370466373861625430e-05 2.083300215184761411e-02 -1.398588916779684428e-04 -9.700853102725171242e-06 2.109199446197224104e-02 1.731462240003745086e-04 -2.870288458082232547e-05 2.096600747709327292e-02 3.914390299865217875e-05 -8.070198569755489477e-05 2.102200275769086635e-02 7.146334497010032016e-06 -1.477028254804406925e-04 2.096100240459048900e-02 -2.485503906494336969e-05 -2.377023467260390563e-04 2.099300237749222170e-02 -2.538605233173267138e-04 -1.156700508525216166e-03 2.111000608167317577e-02 -1.188846006523400731e-05 -5.356908019717262397e-04 2.180800713107917607e-02 3.761425897497557491e-04 -1.132702079327661381e-03 2.103403139561370663e-02 -3.185219416029514073e-05 -4.007033762076951796e-04 2.092000440348956714e-02 1.513266654234167779e-05 1.823020170283364948e-04 2.130299805137743016e-02 2.812993588455825735e-05 1.793029567619782360e-04 2.136999862321950494e-02 -1.166845658938025143e-03 1.546295768427832264e-03 2.079693058133241790e-02 1.194159993815508379e-03 1.539291949061058398e-03 2.065802682263546269e-02 1.017653307763627540e-05 1.952867514564005503e-04 2.022599766446343122e-02 -2.703979885572020247e-03 1.310816826932383050e-01 -2.253096857855015761e-02 -2.815418378338397590e-03 -7.232004949502461675e-04 -1.429710440610328960e-02 -7.583043832669324148e-04 1.639758848540013268e-03 -1.705105414280750145e-02 5.430015291755967317e-03 -7.271359730016272067e-03 -2.507267581667329756e-02 -6.083988348198226571e-03 -7.875349608669604540e-03 -2.499513611325642967e-02 8.285672885341666084e-05 -1.555298776019430453e-03 -2.106897459488231081e-02 7.276872508454962363e-03 -8.121311695618665949e-03 -2.158258855740663798e-02 8.509072563354343546e-04 -1.927317071211589799e-03 -2.231693804598050210e-02 -4.854172226184933110e-03 -7.176286360590143285e-03 -2.046609594107636973e-02 -6.361322181230254745e-04 -2.343017009160258137e-04 -2.131502260177112196e-02 -6.551386391380556191e-04 4.577007382941467506e-04 -2.114403318663857223e-02 2.165866879876572875e-03 -3.130352626904003301e-05 -2.128891138005644529e-02 2.138882593619977491e-04 -1.227309767171832133e-03 -2.183697391004329677e-02 1.738631124878259240e-04 -6.030066218060046822e-05 -2.119699208492225109e-02 1.378395012736359417e-04 1.143707915096488269e-03 -2.059401062146065664e-02 -1.346139534623270887e-03 4.170147787556311504e-05 -2.113005542681010637e-02 2.138880790809804481e-04 4.969064385549710951e-05 -2.180799201507420404e-02 1.288355359471154862e-04 3.270899976790271461e-05 -2.051799523652375265e-02 2.685577201342345425e-05 1.857020757871770086e-04 -2.101200155878915274e-02 -6.114656555643850047e-05 -4.329710386292117530e-05 -2.095900189556548429e-02 -1.001473814830577643e-04 6.703224402590964557e-06 -2.093800419258637358e-02 -1.101351910557041096e-04 2.569899306982350077e-05 -2.123700486889444281e-02 5.486289960442394440e-05 -2.030048394131819041e-05 -2.119099749781965317e-02 -9.214642845532946495e-05 2.770289204721132283e-05 -2.096100416453122034e-02 7.484779607405914084e-05 -1.529523963966561290e-05 -2.081999675463632946e-02 -1.381464393122619309e-04 1.697029705841053917e-04 -2.095800805093557193e-02 -1.491503494372410177e-04 -1.432957447698002371e-04 -2.086800406130863428e-02
-3.314634162556500535e-02 1.457349705072279004e-02 3.322644366395403892e-02 -3.101396155653841566e-02 -1.242634065057418927e-02 -2.574108676038067492e-02 -3.183134204504482149e-03 2.710492931519383657e-04 3.300866540288392107e-03 4.008633978541035038e-04 3.330473375551870337e-04 3.361011604741682632e-03 -1.112139649943645614e-03 -6.479506837161927131e-04 3.416963902427847151e-03 -5.411271061227331848e-04 -8.009555400859313858e-04 3.105989323520750526e-03 -1.010510014074444962e-02 -2.809572954856949132e-04 2.453592497469766435e-03 -2.966134692101305131e-03 1.208049548481173342e-03 3.330862092120827431e-03 -2.855090770793771056e-03 -1.930966686623871581e-03 2.191911117193637553e-03 -3.812378189425425190e-05 6.404314442310155334e-05 3.040997542403886707e-03 -2.512396988772939792e-05 -1.995682321399422897e-05 3.043999262704293572e-03 -4.812271376621942581e-05 2.404276945662075547e-05 3.013997702331013689e-03 -1.251719193462496002e-07 5.704359671499565525e-05 3.074999189008967466e-03 -1.812526588327286397e-05 4.104363916613016559e-05 3.076998682876003199e-03 -8.125222770043757673e-06 1.480436455031771336e-04 3.077997573062893864e-03 2.387322427651796059e-05 3.704413085912329430e-05 3.114000449828408911e-03 -8.512723137307110649e-05 7.904438633501456818e-05 3.125995415778416373e-03 -6.712436609126589348e-05 -5.956648551613409723e-06 3.053997353930562510e-03 1.287011511353059743e-05 1.058045500437507268e-03 3.209985526313305707e-03 1.507932649130382064e-03 6.270224393856631360e-04 1.666052516037078851e-03 -1.538072847223813811e-03 6.250267383945298620e-04 1.800928508554609049e-03 -4.281558067477976310e-04 -1.154945732427646197e-03 3.803998943256334427e-03 4.298427477218394097e-04 -1.179945908012990270e-03 3.839034236158143237e-03 4.872494585509534879e-06 -1.309955967550519539e-03 3.106018773587064952e-03 1.018853448660429675e-03 1.408050610670961598e-03 3.626021528885602085e-03 -2.312564592809578660e-05 -2.106956810391797611e-03 3.045028933137422338e-03 -1.044147498745013648e-03 1.392052552082937702e-03 3.648937748592583422e-03 1.441781238856572507e-02 -1.754029892579967581e-02 -2.028716423065854424e-02 -6.628555976415810352e-04 4.749503722163662066e-04 -3.537033729073948106e-03 -1.398620945519190965e-02 -1.800826919965373141e-02 -1.976031423101118692e-02 -1.932681010294894552e-04 -3.790156867073119634e-02 3.041252951891657355e-02 -1.836867697566372994e-03 -2.288045248885536148e-03 -3.293042362419520541e-03 1.220130025590694970e-03 -1.085046522580227239e-03 -3.213934934700546451e-03 1.202143730815446272e-03 -2.095051555679626129e-03 -3.569921347803827610e-03 -8.138757303070110827e-04 -1.677043086792968669e-03 -3.084009367796593064e-03 2.180895424390914253e-04 -3.589032325571233847e-03 -2.267940236753043792e-03 1.067127865686960013e-03 3.954646265257862891e-06 -3.139956604643973515e-03 -5.287266658880308107e-05 -1.456044689298793262e-03 -3.154981512448617673e-03 -3.587447883598591304e-05 1.479956729051621310e-03 -3.054022446201577843e-03 -8.259274640292001103e-04 1.053975679550935018e-03 -1.761048577148693938e-03 -8.558281406311764013e-04 -1.070059457677557686e-03 -4.241019682899219330e-03 -2.112875963352375906e-03 -1.041531093698073023e-06 -3.046086026149089337e-03 1.777082521421837055e-03 -4.910302573260301061e-04 -2.035920675873041218e-03 -1.307874355559353547e-03 -2.704272851479702769e-05 -3.086052877204906522e-03 1.745169414685611344e-03 4.379397674212044201e-04 -4.151935148115507533e-03 6.612421182804361004e-05 1.695670604468209203e-05 -3.049997550610530298e-03 4.212388686480259399e-05 1.795683825885192820e-05 -3.041998542096157210e-03 -2.874904009849845764e-06 1.956448161431032328e-06 -3.072000147662354210e-03 3.412480775430700515e-05 -5.404349573700911182e-05 -3.065997847041686351e-03 -7.872167115095042204e-06 -3.904451200953961858e-05 -3.139999769915094874e-03 8.012628933786475490e-05 -3.404404215748158821e-05 -3.101996257404338823e-03 4.612277953808850906e-05 -4.404279624420293966e-05 -3.015997500215587129e-03 1.501252375901278324e-04 -2.504372834544037015e-05 -3.075993534568801507e-03 3.012437234057895716e-05 -9.004335082344164557e-05 -3.055997499534901692e-03 -3.830209282430862118e-04 -8.289926394868086341e-04 4.979961568169965699e-04 6.439889918522236859e-04 -9.519969313491204220e-04 2.520397212246810689e-04 1.016403066152654405e-04 -1.370422675229335772e-02 -1.598780158026106082e-02 -7.931315346960976856e-03 8.171162295521683990e-04 7.759665452483357866e-03 5.098042756280974535e-05 4.860069071379296418e-04 4.899951859148586088e-04 8.297685374904528385e-03 8.201032671069346386e-04 7.742326268659571915e-03 -1.019745353859965732e-04 -1.900088379485213896e-04 -6.290014591670377428e-04 6.450032925087986540e-04 1.915998870951328556e-03 -4.400089960493060019e-05 -6.789895388166040328e-04 1.760997369828494691e-03 -2.230526162920734774e-04 -8.709447280140980227e-03 8.273816638115400607e-03 -1.341447197295852177e-02 2.165001212018795480e-03 4.199789365302278901e-05 -2.891243479643977184e-05 -8.753571172288641608e-03 -8.299796542109610584e-03 1.386676123293621374e-02 5.477005904021951983e-03 2.649937266119880685e-04 -1.397807288756092484e-04 -3.530226254564839501e-04 3.310082442852685944e-04 5.619809321774139367e-04 -2.719786261347633717e-04 -2.140072870572190587e-04 -5.290080415383641935e-04 9.050171353461192256e-04 -6.850068617056528442e-04 -4.339534354583187066e-04 1.046989352586312483e-03 8.080031073708847074e-04 2.770311788407388873e-04 -1.366993330784941046e-03 9.099877354372248319e-05 -1.620569554293570171e-04 4.400062412183717084e-05 6.899976705207805827e-05 -1.399918653521572798e-05 -1.770018839568842067e-04 3.800080494287083708e-05 4.699225361064947597e-05 7.998220005025287712e-06 -3.699939661503859789e-05 4.300085030408448938e-05 3.099712995113194230e-05 2.700098234786804438e-05 7.100087948076952004e-05 -1.800086376700071178e-05 -6.299970234381080684e-05 2.000016020518636834e-05 1.199895694465796281e-05 7.200037339726250664e-05 2.699946782614460417e-05 -4.900076346886427875e-05 1.300030774361299318e-05 1.899782034970784304e-05 -9.600134064874797017e-05 -1.519994994831847857e-04 2.999824579045186801e-05 1.029974712546610028e-04 -1.089992299698938269e-04 6.000573956810703786e-05 1.310491397204379682e-01 -6.028032899697373034e-04 2.111734499710452365e-02 -1.100693895770864239e-02 2.793356142998231081e-04 2.306354784927634738e-02 -1.366883617845130947e-02 2.763019138803958475e-04 2.053943949525026749e-02 -1.521531537350129465e-03 1.443186650532828508e-03 1.308091759291269210e-02 -6.750673282407701828e-04 -5.605629388703075797e-03 2.610305201042303902e-02 -1.881878201364163431e-03 -1.256927971923159869e-04 2.156392517043138543e-02 -9.797397245172965053e-04 5.001259680948002065e-03 1.826188921431533274e-02 -1.626850772434349120e-03 -6.667026944138251896e-04 2.087994322505430309e-02 -1.480912581487109575e-03 -4.297682278917531150e-03 2.232800064841165832e-02 1.851481026590579817e-04 3.029646801648458202e-05 2.092100712929727269e-02 -1.886232567461739086e-05 -7.869977108128889366e-05 2.117500036738374780e-02 -4.884326276163301515e-05 3.229364554476644316e-05 2.070899757245966283e-02 1.015325316941896590e-05 -4.870520970903051135e-05 2.079300112331063100e-02 -9.885613442347403732e-05 2.729816487841307221e-05 2.102499560701217088e-02 1.491489304014845501e-04 -4.703801525828031556e-06 2.090000615958787639e-02 -9.853931704025237798e-06 -7.170269875480481678e-05 2.096900063481856383e-02 5.014913247068562244e-05 -1.107038232430901262e-04 2.089300363107305172e-02 -3.085006249817722444e-05 -2.267040717202053394e-04 2.087100197732512721e-02 -2.968547041194082741e-04 -1.161702502280614370e-03 2.096700440169832827e-02 -1.988447646843907618e-05 -5.446921851307952919e-04 2.171000693300333823e-02 4.311474033825684476e-04 -1.121703795373411817e-03 2.091603347941481394e-02 -3.584485500289363044e-05 -3.887059250800857079e-04 2.074000407064032978e-02 -1.086241951022050407e-05 2.173003360472645560e-04 2.118299649652513258e-02 5.113570336184872835e-05 2.123009396805936554e-04 2.122899909206395902e-02 -1.168839259520877954e-03 1.502293529906592812e-03 2.063893112385918951e-02 1.206165451940282435e-03 1.489290025667770962e-03 2.052302802029934772e-02 1.418248615269520897e-05 2.052846783652847572e-04 2.007999768570492213e-02 -2.638988106908892427e-03 1.303076852936692898e-01 -2.234395495827974643e-02 -2.778428457548070933e-03 -6.981970078303741632e-04 -1.404910325410642542e-02 -8.163138437744590914e-04 1.622762183204028586e-03 -1.681905626381055563e-02 5.430006999592501896e-03 -7.252356837747933258e-03 -2.486867608624044115e-02 -6.034998397667040541e-03 -7.864346145122070100e-03 -2.474813427411973188e-02 3.784807410761829041e-05 -1.635295749261716841e-03 -2.085797529329567676e-02 7.264865335378446927e-03 -8.025309162584813236e-03 -2.140459040728761100e-02 8.448966807005914162e-04 -1.860313366115777392e-03 -2.205593924045838594e-02 -4.870179423548908274e-03 -7.111283824421182724e-03 -2.028809751433008346e-02 -6.601421602816518385e-04 -2.942982369137961646e-04 -2.107202272863163001e-02 -6.421481036223372109e-04 4.357040173659388477e-04 -2.091203234557237681e-02 2.173856812419573074e-03 -4.330003061634482938e-05 -2.104191088438608567e-02 1.538787096036962573e-04 -1.202306388412672676e-03 -2.160197670795690680e-02 2.108535783205423833e-04 -1.529735937408439463e-05 -2.096199121646857497e-02 1.518278222416572702e-04 1.205711987333356284e-03 -2.030601093065780016e-02 -1.392151205036139868e-03 1.070556874598532554e-05 -2.084405686072445668e-02 2.288779051271245071e-04 5.769417655858907892e-05 -2.155799151791594481e-02 1.668233940531135156e-04 2.371319499797432906e-05 -2.021999356180855661e-02 6.849746912836747172e-06 1.877041897606122705e-04 -2.086400240169928449e-02 -6.215079738867632098e-05 -3.929562858961048688e-05 -2.085500199309407027e-02 -7.015113174308824006e-05 1.704505270383760561e-06 -2.084600290015754809e-02 -9.614194994318410491e-05 2.670133562180680226e-05 -2.107100431313460240e-02 4.985721044457166117e-05 -5.298495136498731626e-06 -2.105099791422050323e-02 -8.515100405813148766e-05 6.070448865378749823e-05 -2.084800434745649744e-02 6.184272867848974856e-05 -3.829347141177188329e-05 -2.069599695803410119e-02 -1.361510658431936273e-04 1.377045711122150504e-04 -2.084500751591048320e-02 -1.311551169247455074e-04 -1.472941000612702940e-04 -2.075100327173102013e-02