-1.412880925310000066e+03
-1.412880927409999913e+03
-1.412880931429999919e+03
-1.412880937599999925e+03
-1.412880945919999931e+03
