8.570746229999999244e+00 0.000000000000000000e+00 0.000000000000000000e+00 0.000000000000000000e+00 1.929845912000000041e+01 0.000000000000000000e+00 0.000000000000000000e+00 0.000000000000000000e+00 1.993771263000000005e+01
8.570746229999999244e+00 0.000000000000000000e+00 0.000000000000000000e+00 0.000000000000000000e+00 1.929845912000000041e+01 0.000000000000000000e+00 0.000000000000000000e+00 0.000000000000000000e+00 1.993771263000000005e+01
8.570746229999999244e+00 0.000000000000000000e+00 0.000000000000000000e+00 0.000000000000000000e+00 1.929845912000000041e+01 0.000000000000000000e+00 0.000000000000000000e+00 0.000000000000000000e+00 1.993771263000000005e+01
8.570746229999999244e+00 0.000000000000000000e+00 0.000000000000000000e+00 0.000000000000000000e+00 1.929845912000000041e+01 0.000000000000000000e+00 0.000000000000000000e+00 0.000000000000000000e+00 1.993771263000000005e+01
8.570746229999999244e+00 0.000000000000000000e+00 0.000000000000000000e+00 0.000000000000000000e+00 1.929845912000000041e+01 0.000000000000000000e+00 0.000000000000000000e+00 0.000000000000000000e+00 1.993771263000000005e+01
