1.000000000000000048e-04 1.924907999999999930e+01 4.574270000000000280e+00 1.428560000000000052e+00 3.167060000000000208e+00 4.574279999999999902e+00 1.000000000000000048e-04 4.337860000000000049e+00 2.045519999999999783e+00 1.428560000000000052e+00 1.121469999999999967e+00 2.045529999999999848e+00 2.857009999999999827e+00 1.924907999999999930e+01 4.574270000000000280e+00 4.285470000000000113e+00 3.167060000000000208e+00 4.574279999999999902e+00 2.857019999999999893e+00 4.337860000000000049e+00 2.045519999999999783e+00 4.285479999999999734e+00 1.121469999999999967e+00 2.045529999999999848e+00 5.713930000000000398e+00 1.924907999999999930e+01 4.574270000000000280e+00 7.142389999999999795e+00 3.167060000000000208e+00 4.574279999999999902e+00 5.713940000000000019e+00 4.337860000000000049e+00 2.045519999999999783e+00 7.142389999999999795e+00 1.121469999999999967e+00 2.045529999999999848e+00 1.000000000000000048e-04 6.383440000000000225e+00 4.574270000000000280e+00 1.428560000000000052e+00 9.599880000000000635e+00 4.574279999999999902e+00 1.000000000000000048e-04 1.077068000000000048e+01 2.045519999999999783e+00 1.428560000000000052e+00 7.554289999999999949e+00 2.045529999999999848e+00 2.857009999999999827e+00 6.383440000000000225e+00 4.574270000000000280e+00 4.285470000000000113e+00 9.599880000000000635e+00 4.574279999999999902e+00 2.857019999999999893e+00 1.077068000000000048e+01 2.045519999999999783e+00 4.285479999999999734e+00 7.554289999999999949e+00 2.045529999999999848e+00 5.713930000000000398e+00 6.383440000000000225e+00 4.574270000000000280e+00 7.142389999999999795e+00 9.599880000000000635e+00 4.574279999999999902e+00 5.713940000000000019e+00 1.077068000000000048e+01 2.045519999999999783e+00 7.142389999999999795e+00 7.554289999999999949e+00 2.045529999999999848e+00 1.000000000000000048e-04 1.281625999999999976e+01 4.574270000000000280e+00 1.428560000000000052e+00 1.603269999999999840e+01 4.574279999999999902e+00 1.000000000000000048e-04 1.720349999999999824e+01 2.045519999999999783e+00 1.428560000000000052e+00 1.398710999999999949e+01 2.045529999999999848e+00 2.857009999999999827e+00 1.281625999999999976e+01 4.574270000000000280e+00 4.285470000000000113e+00 1.603269999999999840e+01 4.574279999999999902e+00 2.857019999999999893e+00 1.720349999999999824e+01 2.045519999999999783e+00 4.285479999999999734e+00 1.398710999999999949e+01 2.045529999999999848e+00 5.713930000000000398e+00 1.281625999999999976e+01 4.574270000000000280e+00 7.142389999999999795e+00 1.603269999999999840e+01 4.574279999999999902e+00 5.713940000000000019e+00 1.720349999999999824e+01 2.045519999999999783e+00 7.142389999999999795e+00 1.398710999999999949e+01 2.045529999999999848e+00 1.000000000000000048e-04 1.924907999999999930e+01 1.122016999999999953e+01 1.428560000000000052e+00 3.167060000000000208e+00 1.122017999999999915e+01 1.000000000000000048e-04 4.337860000000000049e+00 8.691420000000000812e+00 1.428560000000000052e+00 1.121469999999999967e+00 8.691440000000000055e+00 2.857009999999999827e+00 1.924907999999999930e+01 1.122016999999999953e+01 4.285470000000000113e+00 3.167060000000000208e+00 1.122017999999999915e+01 2.857019999999999893e+00 4.337860000000000049e+00 8.691420000000000812e+00 4.285479999999999734e+00 1.121469999999999967e+00 8.691440000000000055e+00 5.713930000000000398e+00 1.924907999999999930e+01 1.122016999999999953e+01 7.142389999999999795e+00 3.167060000000000208e+00 1.122017999999999915e+01 5.713940000000000019e+00 4.337860000000000049e+00 8.691420000000000812e+00 7.142389999999999795e+00 1.121469999999999967e+00 8.691440000000000055e+00 1.000000000000000048e-04 6.383440000000000225e+00 1.122016999999999953e+01 1.428560000000000052e+00 9.599880000000000635e+00 1.122017999999999915e+01 1.000000000000000048e-04 1.077068000000000048e+01 8.691420000000000812e+00 1.428560000000000052e+00 7.554289999999999949e+00 8.691440000000000055e+00 2.857009999999999827e+00 6.383440000000000225e+00 1.122016999999999953e+01 4.285470000000000113e+00 9.599880000000000635e+00 1.122017999999999915e+01 2.857019999999999893e+00 1.077068000000000048e+01 8.691420000000000812e+00 4.285479999999999734e+00 7.554289999999999949e+00 8.691440000000000055e+00 5.713930000000000398e+00 6.383440000000000225e+00 1.122016999999999953e+01 7.142389999999999795e+00 9.599880000000000635e+00 1.122017999999999915e+01 5.713940000000000019e+00 1.077068000000000048e+01 8.691420000000000812e+00 7.142389999999999795e+00 7.554289999999999949e+00 8.691440000000000055e+00 1.000000000000000048e-04 1.281625999999999976e+01 1.122016999999999953e+01 1.428560000000000052e+00 1.603269999999999840e+01 1.122017999999999915e+01 1.000000000000000048e-04 1.720349999999999824e+01 8.691420000000000812e+00 1.428560000000000052e+00 1.398710999999999949e+01 8.691440000000000055e+00 2.857009999999999827e+00 1.281625999999999976e+01 1.122016999999999953e+01 4.285470000000000113e+00 1.603269999999999840e+01 1.122017999999999915e+01 2.857019999999999893e+00 1.720349999999999824e+01 8.691420000000000812e+00 4.285479999999999734e+00 1.398710999999999949e+01 8.691440000000000055e+00 5.713930000000000398e+00 1.281625999999999976e+01 1.122016999999999953e+01 7.142389999999999795e+00 1.603269999999999840e+01 1.122017999999999915e+01 5.713940000000000019e+00 1.720349999999999824e+01 8.691420000000000812e+00 7.142389999999999795e+00 1.398710999999999949e+01 8.691440000000000055e+00 1.000000000000000048e-04 1.924907999999999930e+01 1.786608000000000018e+01 1.428560000000000052e+00 3.167060000000000208e+00 1.786608999999999980e+01 1.000000000000000048e-04 4.337860000000000049e+00 1.533732999999999969e+01 1.428560000000000052e+00 1.121469999999999967e+00 1.533733999999999931e+01 2.857009999999999827e+00 1.924907999999999930e+01 1.786608000000000018e+01 4.285470000000000113e+00 3.167060000000000208e+00 1.786608999999999980e+01 2.857019999999999893e+00 4.337860000000000049e+00 1.533732999999999969e+01 4.285479999999999734e+00 1.121469999999999967e+00 1.533733999999999931e+01 5.713930000000000398e+00 1.924907999999999930e+01 1.786608000000000018e+01 7.142389999999999795e+00 3.167060000000000208e+00 1.786608999999999980e+01 5.713940000000000019e+00 4.337860000000000049e+00 1.533732999999999969e+01 7.142389999999999795e+00 1.121469999999999967e+00 1.533733999999999931e+01 1.000000000000000048e-04 6.383440000000000225e+00 1.786608000000000018e+01 1.428560000000000052e+00 9.599880000000000635e+00 1.786608999999999980e+01 1.000000000000000048e-04 1.077068000000000048e+01 1.533732999999999969e+01 1.428560000000000052e+00 7.554289999999999949e+00 1.533733999999999931e+01 2.857009999999999827e+00 6.383440000000000225e+00 1.786608000000000018e+01 4.285470000000000113e+00 9.599880000000000635e+00 1.786608999999999980e+01 2.857019999999999893e+00 1.077068000000000048e+01 1.533732999999999969e+01 4.285479999999999734e+00 7.554289999999999949e+00 1.533733999999999931e+01 5.713930000000000398e+00 6.383440000000000225e+00 1.786608000000000018e+01 7.142389999999999795e+00 9.599880000000000635e+00 1.786608999999999980e+01 5.713940000000000019e+00 1.077068000000000048e+01 1.533732999999999969e+01 7.142389999999999795e+00 7.554289999999999949e+00 1.533733999999999931e+01 1.000000000000000048e-04 1.281625999999999976e+01 1.786608000000000018e+01 1.428560000000000052e+00 1.603269999999999840e+01 1.786608999999999980e+01 1.000000000000000048e-04 1.720349999999999824e+01 1.533732999999999969e+01 1.428560000000000052e+00 1.398710999999999949e+01 1.533733999999999931e+01 2.857009999999999827e+00 1.281625999999999976e+01 1.786608000000000018e+01 4.285470000000000113e+00 1.603269999999999840e+01 1.786608999999999980e+01 2.857019999999999893e+00 1.720349999999999824e+01 1.533732999999999969e+01 4.285479999999999734e+00 1.398710999999999949e+01 1.533733999999999931e+01 5.713930000000000398e+00 1.281625999999999976e+01 1.786608000000000018e+01 7.142389999999999795e+00 1.603269999999999840e+01 1.786608999999999980e+01 5.713940000000000019e+00 1.720349999999999824e+01 1.533732999999999969e+01 7.142389999999999795e+00 1.398710999999999949e+01 1.533733999999999931e+01 1.299999999999999886e-04 2.144260000000000055e+00 3.310000000000000053e+00 1.200000000000000030e-04 4.291809999999999903e+00 5.510480000000000267e+00 1.428579999999999961e+00 3.212990000000000013e+00 1.109480000000000022e+00 1.299999999999999886e-04 1.929505999999999943e+01 1.109529999999999905e+00 1.428590000000000027e+00 5.360590000000000188e+00 3.310000000000000053e+00 1.428579999999999961e+00 1.075360000000000094e+00 5.510430000000000383e+00 2.857050000000000090e+00 2.144260000000000055e+00 3.310000000000000053e+00 2.857040000000000024e+00 4.291809999999999903e+00 5.510480000000000267e+00 4.285499999999999865e+00 3.212990000000000013e+00 1.109480000000000022e+00 2.857040000000000024e+00 1.929505999999999943e+01 1.109529999999999905e+00 4.285510000000000375e+00 5.360590000000000188e+00 3.310000000000000053e+00 4.285499999999999865e+00 1.075360000000000094e+00 5.510430000000000383e+00 5.713969999999999771e+00 2.144260000000000055e+00 3.310000000000000053e+00 5.713949999999999640e+00 4.291809999999999903e+00 5.510480000000000267e+00 7.142420000000000435e+00 3.212990000000000013e+00 1.109480000000000022e+00 5.713960000000000150e+00 1.929505999999999943e+01 1.109529999999999905e+00 7.142430000000000057e+00 5.360590000000000188e+00 3.310000000000000053e+00 7.142409999999999926e+00 1.075360000000000094e+00 5.510430000000000383e+00 1.299999999999999886e-04 8.577080000000000481e+00 3.310000000000000053e+00 1.200000000000000030e-04 1.072462999999999944e+01 5.510480000000000267e+00 1.428579999999999961e+00 9.645810000000000883e+00 1.109480000000000022e+00 1.299999999999999886e-04 6.429420000000000357e+00 1.109529999999999905e+00 1.428590000000000027e+00 1.179340999999999973e+01 3.310000000000000053e+00 1.428579999999999961e+00 7.508180000000000298e+00 5.510430000000000383e+00 2.857050000000000090e+00 8.577080000000000481e+00 3.310000000000000053e+00 2.857040000000000024e+00 1.072462999999999944e+01 5.510480000000000267e+00 4.285499999999999865e+00 9.645810000000000883e+00 1.109480000000000022e+00 2.857040000000000024e+00 6.429420000000000357e+00 1.109529999999999905e+00 4.285510000000000375e+00 1.179340999999999973e+01 3.310000000000000053e+00 4.285499999999999865e+00 7.508180000000000298e+00 5.510430000000000383e+00 5.713969999999999771e+00 8.577080000000000481e+00 3.310000000000000053e+00 5.713949999999999640e+00 1.072462999999999944e+01 5.510480000000000267e+00 7.142420000000000435e+00 9.645810000000000883e+00 1.109480000000000022e+00 5.713960000000000150e+00 6.429420000000000357e+00 1.109529999999999905e+00 7.142430000000000057e+00 1.179340999999999973e+01 3.310000000000000053e+00 7.142409999999999926e+00 7.508180000000000298e+00 5.510430000000000383e+00 1.299999999999999886e-04 1.500990000000000002e+01 3.310000000000000053e+00 1.200000000000000030e-04 1.715745000000000076e+01 5.510480000000000267e+00 1.428579999999999961e+00 1.607863000000000042e+01 1.109480000000000022e+00 1.299999999999999886e-04 1.286223999999999990e+01 1.109529999999999905e+00 1.428590000000000027e+00 1.822623000000000104e+01 3.310000000000000053e+00 1.428579999999999961e+00 1.394098999999999933e+01 5.510430000000000383e+00 2.857050000000000090e+00 1.500990000000000002e+01 3.310000000000000053e+00 2.857040000000000024e+00 1.715745000000000076e+01 5.510480000000000267e+00 4.285499999999999865e+00 1.607863000000000042e+01 1.109480000000000022e+00 2.857040000000000024e+00 1.286223999999999990e+01 1.109529999999999905e+00 4.285510000000000375e+00 1.822623000000000104e+01 3.310000000000000053e+00 4.285499999999999865e+00 1.394098999999999933e+01 5.510430000000000383e+00 5.713969999999999771e+00 1.500990000000000002e+01 3.310000000000000053e+00 5.713949999999999640e+00 1.715745000000000076e+01 5.510480000000000267e+00 7.142420000000000435e+00 1.607863000000000042e+01 1.109480000000000022e+00 5.713960000000000150e+00 1.286223999999999990e+01 1.109529999999999905e+00 7.142430000000000057e+00 1.822623000000000104e+01 3.310000000000000053e+00 7.142409999999999926e+00 1.394098999999999933e+01 5.510430000000000383e+00 1.299999999999999886e-04 2.144260000000000055e+00 9.955899999999999750e+00 1.200000000000000030e-04 4.291809999999999903e+00 1.215639000000000003e+01 1.428579999999999961e+00 3.212990000000000013e+00 7.755379999999999718e+00 1.299999999999999886e-04 1.929505999999999943e+01 7.755440000000000111e+00 1.428590000000000027e+00 5.360590000000000188e+00 9.955899999999999750e+00 1.428579999999999961e+00 1.075360000000000094e+00 1.215633000000000052e+01 2.857050000000000090e+00 2.144260000000000055e+00 9.955899999999999750e+00 2.857040000000000024e+00 4.291809999999999903e+00 1.215639000000000003e+01 4.285499999999999865e+00 3.212990000000000013e+00 7.755379999999999718e+00 2.857040000000000024e+00 1.929505999999999943e+01 7.755440000000000111e+00 4.285510000000000375e+00 5.360590000000000188e+00 9.955899999999999750e+00 4.285499999999999865e+00 1.075360000000000094e+00 1.215633000000000052e+01 5.713969999999999771e+00 2.144260000000000055e+00 9.955899999999999750e+00 5.713949999999999640e+00 4.291809999999999903e+00 1.215639000000000003e+01 7.142420000000000435e+00 3.212990000000000013e+00 7.755379999999999718e+00 5.713960000000000150e+00 1.929505999999999943e+01 7.755440000000000111e+00 7.142430000000000057e+00 5.360590000000000188e+00 9.955899999999999750e+00 7.142409999999999926e+00 1.075360000000000094e+00 1.215633000000000052e+01 1.299999999999999886e-04 8.577080000000000481e+00 9.955899999999999750e+00 1.200000000000000030e-04 1.072462999999999944e+01 1.215639000000000003e+01 1.428579999999999961e+00 9.645810000000000883e+00 7.755379999999999718e+00 1.299999999999999886e-04 6.429420000000000357e+00 7.755440000000000111e+00 1.428590000000000027e+00 1.179340999999999973e+01 9.955899999999999750e+00 1.428579999999999961e+00 7.508180000000000298e+00 1.215633000000000052e+01 2.857050000000000090e+00 8.577080000000000481e+00 9.955899999999999750e+00 2.857040000000000024e+00 1.072462999999999944e+01 1.215639000000000003e+01 4.285499999999999865e+00 9.645810000000000883e+00 7.755379999999999718e+00 2.857040000000000024e+00 6.429420000000000357e+00 7.755440000000000111e+00 4.285510000000000375e+00 1.179340999999999973e+01 9.955899999999999750e+00 4.285499999999999865e+00 7.508180000000000298e+00 1.215633000000000052e+01 5.713969999999999771e+00 8.577080000000000481e+00 9.955899999999999750e+00 5.713949999999999640e+00 1.072462999999999944e+01 1.215639000000000003e+01 7.142420000000000435e+00 9.645810000000000883e+00 7.755379999999999718e+00 5.713960000000000150e+00 6.429420000000000357e+00 7.755440000000000111e+00 7.142430000000000057e+00 1.179340999999999973e+01 9.955899999999999750e+00 7.142409999999999926e+00 7.508180000000000298e+00 1.215633000000000052e+01 1.299999999999999886e-04 1.500990000000000002e+01 9.955899999999999750e+00 1.200000000000000030e-04 1.715745000000000076e+01 1.215639000000000003e+01 1.428579999999999961e+00 1.607863000000000042e+01 7.755379999999999718e+00 1.299999999999999886e-04 1.286223999999999990e+01 7.755440000000000111e+00 1.428590000000000027e+00 1.822623000000000104e+01 9.955899999999999750e+00 1.428579999999999961e+00 1.394098999999999933e+01 1.215633000000000052e+01 2.857050000000000090e+00 1.500990000000000002e+01 9.955899999999999750e+00 2.857040000000000024e+00 1.715745000000000076e+01 1.215639000000000003e+01 4.285499999999999865e+00 1.607863000000000042e+01 7.755379999999999718e+00 2.857040000000000024e+00 1.286223999999999990e+01 7.755440000000000111e+00 4.285510000000000375e+00 1.822623000000000104e+01 9.955899999999999750e+00 4.285499999999999865e+00 1.394098999999999933e+01 1.215633000000000052e+01 5.713969999999999771e+00 1.500990000000000002e+01 9.955899999999999750e+00 5.713949999999999640e+00 1.715745000000000076e+01 1.215639000000000003e+01 7.142420000000000435e+00 1.607863000000000042e+01 7.755379999999999718e+00 5.713960000000000150e+00 1.286223999999999990e+01 7.755440000000000111e+00 7.142430000000000057e+00 1.822623000000000104e+01 9.955899999999999750e+00 7.142409999999999926e+00 1.394098999999999933e+01 1.215633000000000052e+01 1.299999999999999886e-04 2.144260000000000055e+00 1.660181000000000040e+01 1.200000000000000030e-04 4.291809999999999903e+00 1.880228999999999928e+01 1.428579999999999961e+00 3.212990000000000013e+00 1.440128999999999948e+01 1.299999999999999886e-04 1.929505999999999943e+01 1.440133999999999936e+01 1.428590000000000027e+00 5.360590000000000188e+00 1.660181000000000040e+01 1.428579999999999961e+00 1.075360000000000094e+00 1.880223000000000155e+01 2.857050000000000090e+00 2.144260000000000055e+00 1.660181000000000040e+01 2.857040000000000024e+00 4.291809999999999903e+00 1.880228999999999928e+01 4.285499999999999865e+00 3.212990000000000013e+00 1.440128999999999948e+01 2.857040000000000024e+00 1.929505999999999943e+01 1.440133999999999936e+01 4.285510000000000375e+00 5.360590000000000188e+00 1.660181000000000040e+01 4.285499999999999865e+00 1.075360000000000094e+00 1.880223000000000155e+01 5.713969999999999771e+00 2.144260000000000055e+00 1.660181000000000040e+01 5.713949999999999640e+00 4.291809999999999903e+00 1.880228999999999928e+01 7.142420000000000435e+00 3.212990000000000013e+00 1.440128999999999948e+01 5.713960000000000150e+00 1.929505999999999943e+01 1.440133999999999936e+01 7.142430000000000057e+00 5.360590000000000188e+00 1.660181000000000040e+01 7.142409999999999926e+00 1.075360000000000094e+00 1.880223000000000155e+01 1.299999999999999886e-04 8.577080000000000481e+00 1.660181000000000040e+01 1.200000000000000030e-04 1.072462999999999944e+01 1.880228999999999928e+01 1.428579999999999961e+00 9.645810000000000883e+00 1.440128999999999948e+01 1.299999999999999886e-04 6.429420000000000357e+00 1.440133999999999936e+01 1.428590000000000027e+00 1.179340999999999973e+01 1.660181000000000040e+01 1.428579999999999961e+00 7.508180000000000298e+00 1.880223000000000155e+01 2.857050000000000090e+00 8.577080000000000481e+00 1.660181000000000040e+01 2.857040000000000024e+00 1.072462999999999944e+01 1.880228999999999928e+01 4.285499999999999865e+00 9.645810000000000883e+00 1.440128999999999948e+01 2.857040000000000024e+00 6.429420000000000357e+00 1.440133999999999936e+01 4.285510000000000375e+00 1.179340999999999973e+01 1.660181000000000040e+01 4.285499999999999865e+00 7.508180000000000298e+00 1.880223000000000155e+01 5.713969999999999771e+00 8.577080000000000481e+00 1.660181000000000040e+01 5.713949999999999640e+00 1.072462999999999944e+01 1.880228999999999928e+01 7.142420000000000435e+00 9.645810000000000883e+00 1.440128999999999948e+01 5.713960000000000150e+00 6.429420000000000357e+00 1.440133999999999936e+01 7.142430000000000057e+00 1.179340999999999973e+01 1.660181000000000040e+01 7.142409999999999926e+00 7.508180000000000298e+00 1.880223000000000155e+01 1.299999999999999886e-04 1.500990000000000002e+01 1.660181000000000040e+01 1.200000000000000030e-04 1.715745000000000076e+01 1.880228999999999928e+01 1.428579999999999961e+00 1.607863000000000042e+01 1.440128999999999948e+01 1.299999999999999886e-04 1.286223999999999990e+01 1.440133999999999936e+01 1.428590000000000027e+00 1.822623000000000104e+01 1.660181000000000040e+01 1.428579999999999961e+00 1.394098999999999933e+01 1.880223000000000155e+01 2.857050000000000090e+00 1.500990000000000002e+01 1.660181000000000040e+01 2.857040000000000024e+00 1.715745000000000076e+01 1.880228999999999928e+01 4.285499999999999865e+00 1.607863000000000042e+01 1.440128999999999948e+01 2.857040000000000024e+00 1.286223999999999990e+01 1.440133999999999936e+01 4.285510000000000375e+00 1.822623000000000104e+01 1.660181000000000040e+01 4.285499999999999865e+00 1.394098999999999933e+01 1.880223000000000155e+01 5.713969999999999771e+00 1.500990000000000002e+01 1.660181000000000040e+01 5.713949999999999640e+00 1.715745000000000076e+01 1.880228999999999928e+01 7.142420000000000435e+00 1.607863000000000042e+01 1.440128999999999948e+01 5.713960000000000150e+00 1.286223999999999990e+01 1.440133999999999936e+01 7.142430000000000057e+00 1.822623000000000104e+01 1.660181000000000040e+01 7.142409999999999926e+00 1.394098999999999933e+01 1.880223000000000155e+01