-2.724902646779999941e+03
-2.724874265020000166e+03
-2.724789342590000160e+03
-2.724648349409999810e+03
-2.724452145809999820e+03
