3.970000000000000005e-04 -1.117199999999999964e-02 4.620000000000000083e-04 4.110000000000000155e-04 -1.063799999999999989e-02 7.579999999999999932e-04 4.270000000000000249e-04 9.624999999999999875e-03 -8.729999999999999696e-04 3.669999999999999760e-04 1.007899999999999942e-02 5.770000000000000389e-04 3.950000000000000061e-04 -1.114099999999999986e-02 4.620000000000000083e-04 4.040000000000000080e-04 -1.064499999999999995e-02 7.759999999999999971e-04 3.869999999999999742e-04 9.613999999999999282e-03 -8.750000000000000182e-04 3.350000000000000113e-04 1.005299999999999944e-02 5.910000000000000539e-04 3.959999999999999762e-04 -1.116600000000000058e-02 4.640000000000000027e-04 4.090000000000000211e-04 -1.063599999999999962e-02 7.640000000000000306e-04 4.189999999999999931e-04 9.603999999999999690e-03 -8.490000000000000368e-04 3.449999999999999833e-04 1.005999999999999950e-02 5.890000000000000053e-04 4.679999999999999915e-04 -1.070600000000000024e-02 -2.539999999999999940e-04 3.499999999999999964e-04 -1.098099999999999944e-02 1.000000000000000021e-03 3.820000000000000153e-04 1.002499999999999919e-02 1.659999999999999963e-04 3.539999999999999853e-04 1.025500000000000023e-02 -2.900000000000000017e-05 4.499999999999999877e-04 -1.071700000000000083e-02 -2.509999999999999753e-04 3.609999999999999928e-04 -1.095899999999999999e-02 1.005999999999999950e-03 3.789999999999999966e-04 9.998999999999999208e-03 1.479999999999999925e-04 3.379999999999999758e-04 1.028300000000000047e-02 -2.599999999999999840e-05 4.800000000000000122e-04 -1.072399999999999916e-02 -2.449999999999999921e-04 3.460000000000000076e-04 -1.096100000000000026e-02 1.008999999999999914e-03 3.629999999999999872e-04 9.995999999999999677e-03 1.520000000000000084e-04 4.029999999999999837e-04 1.027400000000000015e-02 -1.399999999999999979e-05 4.389999999999999914e-04 -1.067899999999999926e-02 8.480000000000000124e-04 3.739999999999999835e-04 -1.070100000000000044e-02 2.880000000000000073e-04 4.020000000000000136e-04 1.010600000000000040e-02 -1.169999999999999979e-04 3.809999999999999910e-04 9.464999999999999455e-03 -8.300000000000000086e-04 4.420000000000000101e-04 -1.067099999999999993e-02 8.620000000000000275e-04 3.739999999999999835e-04 -1.071899999999999936e-02 2.939999999999999905e-04 3.959999999999999762e-04 1.010199999999999987e-02 -1.340000000000000045e-04 3.490000000000000263e-04 9.478999999999999579e-03 -8.210000000000000067e-04 4.629999999999999784e-04 -1.067199999999999920e-02 8.689999999999999808e-04 4.020000000000000136e-04 -1.070600000000000024e-02 2.849999999999999886e-04 3.829999999999999854e-04 1.009900000000000034e-02 -1.190000000000000058e-04 3.959999999999999762e-04 9.471999999999999517e-03 -8.260000000000000198e-04 3.789999999999999966e-04 -1.116299999999999931e-02 4.429999999999999802e-04 3.869999999999999742e-04 -1.066300000000000060e-02 8.980000000000000352e-04 4.130000000000000099e-04 9.579000000000000709e-03 -5.990000000000000316e-04 3.490000000000000263e-04 9.974999999999999492e-03 7.510000000000000399e-04 3.680000000000000003e-04 -1.116699999999999984e-02 4.270000000000000249e-04 4.130000000000000099e-04 -1.061899999999999997e-02 8.630000000000000518e-04 4.049999999999999781e-04 9.605999999999999955e-03 -6.149999999999999868e-04 3.600000000000000227e-04 9.972999999999999227e-03 7.349999999999999763e-04 4.180000000000000230e-04 -1.117399999999999990e-02 3.959999999999999762e-04 3.989999999999999949e-04 -1.064599999999999921e-02 8.850000000000000444e-04 4.249999999999999763e-04 9.603000000000000425e-03 -6.040000000000000447e-04 3.490000000000000263e-04 9.978000000000000758e-03 7.489999999999999913e-04 4.719999999999999803e-04 -1.075399999999999967e-02 -1.569999999999999944e-04 3.330000000000000169e-04 -1.110599999999999955e-02 8.279999999999999600e-04 4.159999999999999744e-04 9.957999999999999838e-03 6.200000000000000270e-05 3.660000000000000059e-04 1.031600000000000052e-02 1.520000000000000084e-04 4.749999999999999990e-04 -1.072299999999999989e-02 -1.499999999999999869e-04 3.319999999999999926e-04 -1.112299999999999921e-02 8.099999999999999561e-04 3.699999999999999947e-04 9.976999999999999758e-03 7.299999999999999903e-05 3.400000000000000244e-04 1.030200000000000039e-02 1.520000000000000084e-04 4.620000000000000083e-04 -1.074499999999999934e-02 -1.730000000000000038e-04 3.789999999999999966e-04 -1.110099999999999976e-02 8.239999999999999712e-04 3.770000000000000022e-04 9.952000000000000776e-03 5.399999999999999798e-05 3.669999999999999760e-04 1.031100000000000072e-02 1.499999999999999869e-04 4.659999999999999971e-04 -1.067399999999999946e-02 6.359999999999999551e-04 3.699999999999999947e-04 -1.045800000000000028e-02 2.329999999999999986e-04 4.000000000000000192e-04 1.028300000000000047e-02 -7.299999999999999903e-05 3.910000000000000172e-04 9.693999999999999492e-03 -8.779999999999999827e-04 4.290000000000000193e-04 -1.067500000000000046e-02 6.120000000000000223e-04 3.780000000000000265e-04 -1.045100000000000022e-02 2.120000000000000031e-04 4.079999999999999968e-04 1.026999999999999962e-02 -8.700000000000000051e-05 3.559999999999999797e-04 9.698000000000000023e-03 -8.859999999999999603e-04 4.550000000000000008e-04 -1.064200000000000042e-02 6.329999999999999906e-04 3.899999999999999929e-04 -1.044499999999999942e-02 2.210000000000000050e-04 3.869999999999999742e-04 1.029599999999999960e-02 -7.399999999999999623e-05 4.020000000000000136e-04 9.712999999999999412e-03 -8.620000000000000275e-04 4.020000000000000136e-04 -1.115000000000000019e-02 3.029999999999999924e-04 4.029999999999999837e-04 -1.062199999999999950e-02 7.039999999999999817e-04 4.350000000000000026e-04 9.613000000000000017e-03 -7.569999999999999689e-04 3.480000000000000020e-04 1.019199999999999967e-02 6.369999999999999794e-04 3.829999999999999854e-04 -1.114899999999999919e-02 3.150000000000000131e-04 3.980000000000000248e-04 -1.058199999999999939e-02 7.169999999999999724e-04 4.040000000000000080e-04 9.605000000000000690e-03 -7.529999999999999801e-04 3.299999999999999982e-04 1.016799999999999995e-02 6.679999999999999740e-04 4.000000000000000192e-04 -1.114899999999999919e-02 2.900000000000000017e-04 4.229999999999999819e-04 -1.059000000000000045e-02 6.970000000000000284e-04 4.159999999999999744e-04 9.629000000000000406e-03 -7.500000000000000156e-04 3.869999999999999742e-04 1.017500000000000002e-02 6.480000000000000300e-04 4.620000000000000083e-04 -1.075199999999999941e-02 -2.300000000000000070e-04 3.420000000000000188e-04 -1.113699999999999933e-02 9.849999999999999815e-04 3.809999999999999910e-04 9.825000000000000400e-03 1.900000000000000105e-04 3.530000000000000152e-04 1.009000000000000001e-02 7.399999999999999623e-05 4.690000000000000158e-04 -1.076799999999999979e-02 -2.300000000000000070e-04 3.600000000000000227e-04 -1.114500000000000039e-02 9.970000000000000563e-04 3.629999999999999872e-04 9.830999999999999461e-03 1.900000000000000105e-04 3.649999999999999816e-04 1.006199999999999976e-02 8.600000000000000331e-05 4.679999999999999915e-04 -1.077400000000000059e-02 -2.190000000000000106e-04 3.559999999999999797e-04 -1.114200000000000086e-02 9.909999999999999105e-04 4.060000000000000024e-04 9.815000000000000807e-03 2.180000000000000134e-04 3.680000000000000003e-04 1.008099999999999968e-02 9.100000000000000287e-05 4.299999999999999894e-04 -1.060299999999999958e-02 8.360000000000000460e-04 3.669999999999999760e-04 -1.063399999999999936e-02 1.630000000000000047e-04 4.209999999999999875e-04 1.026799999999999935e-02 -6.899999999999999667e-05 4.009999999999999893e-04 9.811000000000000276e-03 -6.610000000000000207e-04 4.519999999999999821e-04 -1.060000000000000005e-02 8.329999999999999731e-04 3.649999999999999816e-04 -1.067199999999999920e-02 1.399999999999999877e-04 4.000000000000000192e-04 1.025399999999999923e-02 -7.499999999999999343e-05 3.660000000000000059e-04 9.820000000000000603e-03 -6.579999999999999478e-04 4.609999999999999840e-04 -1.059700000000000052e-02 8.390000000000000105e-04 4.090000000000000211e-04 -1.065100000000000074e-02 1.649999999999999991e-04 3.780000000000000265e-04 1.025299999999999996e-02 -6.299999999999999990e-05 3.789999999999999966e-04 9.802999999999999214e-03 -6.499999999999999702e-04 -3.789999999999999966e-04 -1.119999999999999983e-04 1.610000000000000103e-04 -1.350000000000000017e-04 8.449999999999999178e-03 4.761999999999999740e-03 -3.099999999999999999e-04 -1.013799999999999944e-02 -4.240999999999999978e-03 -7.999999999999999638e-06 -8.274999999999999370e-03 -4.002999999999999614e-03 -5.130000000000000011e-04 -2.390000000000000089e-04 1.279999999999999942e-04 -2.530000000000000239e-04 1.141099999999999927e-02 5.120000000000000419e-03 -3.600000000000000227e-04 -1.479999999999999925e-04 1.669999999999999935e-04 -9.000000000000000567e-05 8.479000000000000425e-03 4.782999999999999925e-03 -3.089999999999999756e-04 -1.018600000000000061e-02 -4.105000000000000142e-03 -3.620000000000000171e-04 -8.212000000000000549e-03 -3.883999999999999866e-03 -4.499999999999999877e-04 -2.500000000000000052e-04 1.000000000000000048e-04 -1.669999999999999935e-04 1.149200000000000048e-02 4.952999999999999937e-03 -4.279999999999999950e-04 -1.420000000000000092e-04 1.939999999999999993e-04 -1.769999999999999926e-04 8.496000000000000080e-03 4.741000000000000422e-03 -9.699999999999999963e-05 -1.002499999999999919e-02 -4.164000000000000166e-03 -1.589999999999999888e-04 -8.269000000000000308e-03 -3.884999999999999998e-03 -4.099999999999999912e-04 -3.240000000000000150e-04 1.849999999999999973e-04 -1.920000000000000049e-04 1.137699999999999996e-02 5.055999999999999731e-03 -4.780000000000000178e-04 -1.093000000000000005e-03 -1.008999999999999914e-03 -1.879999999999999890e-04 9.884999999999999690e-03 5.440999999999999656e-03 -1.540000000000000028e-04 -9.423000000000000820e-03 -5.279999999999999971e-03 -1.250000000000000026e-04 -9.435999999999999943e-03 -5.355000000000000385e-03 -4.040000000000000080e-04 -9.169999999999999549e-04 -4.209999999999999875e-04 -9.200000000000000007e-05 9.622000000000000344e-03 4.755999999999999811e-03 -4.180000000000000230e-04 -1.036000000000000029e-03 -8.779999999999999827e-04 -1.450000000000000009e-04 9.886000000000000690e-03 5.328000000000000271e-03 -1.969999999999999909e-04 -9.266999999999999196e-03 -5.160999999999999789e-03 -3.449999999999999833e-04 -9.490999999999999437e-03 -5.338999999999999996e-03 -4.850000000000000253e-04 -8.440000000000000236e-04 -4.889999999999999599e-04 -2.149999999999999947e-04 9.619000000000000813e-03 4.648000000000000222e-03 -4.690000000000000158e-04 -9.129999999999999661e-04 -1.018000000000000025e-03 -1.389999999999999905e-04 9.837999999999999523e-03 5.302000000000000289e-03 -1.410000000000000120e-04 -9.350000000000000672e-03 -5.202000000000000027e-03 -9.299999999999999727e-05 -9.322999999999999690e-03 -5.178000000000000311e-03 -4.629999999999999784e-04 -8.809999999999999472e-04 -4.719999999999999803e-04 -7.100000000000000462e-05 9.549000000000000196e-03 4.638999999999999894e-03 -3.330000000000000169e-04 3.099999999999999999e-04 -6.489999999999999459e-04 -1.810000000000000085e-04 1.092500000000000068e-02 5.277999999999999706e-03 -3.359999999999999814e-04 -9.336999999999999814e-03 -5.346000000000000058e-03 -1.749999999999999982e-04 -1.077299999999999959e-02 -5.884999999999999606e-03 -4.850000000000000253e-04 3.890000000000000228e-04 -1.039999999999999936e-04 -1.019999999999999992e-04 9.372999999999999388e-03 5.936999999999999569e-03 -4.180000000000000230e-04 2.120000000000000031e-04 -5.999999999999999474e-04 -1.119999999999999983e-04 1.084300000000000021e-02 5.275000000000000175e-03 -2.799999999999999755e-04 -9.362999999999999795e-03 -5.347000000000000190e-03 -2.180000000000000134e-04 -1.081799999999999949e-02 -5.937999999999999702e-03 -4.789999999999999879e-04 4.070000000000000267e-04 -2.300000000000000002e-05 -2.320000000000000014e-04 9.371000000000000857e-03 6.048999999999999690e-03 -3.919999999999999873e-04 2.259999999999999910e-04 -6.139999999999999625e-04 -1.179999999999999951e-04 1.100100000000000036e-02 5.212999999999999752e-03 -1.459999999999999981e-04 -9.306000000000000036e-03 -5.414999999999999675e-03 -1.499999999999999869e-04 -1.083800000000000041e-02 -5.905999999999999792e-03 -4.180000000000000230e-04 4.029999999999999837e-04 3.999999999999999819e-06 -2.049999999999999956e-04 9.244999999999999746e-03 6.015999999999999646e-03 -3.910000000000000172e-04 -5.659999999999999884e-04 -8.429999999999999993e-04 -8.000000000000000654e-05 8.484000000000000222e-03 4.525000000000000376e-03 -1.920000000000000049e-04 -1.006100000000000050e-02 -5.738000000000000045e-03 -1.959999999999999937e-04 -7.926000000000000753e-03 -4.695999999999999654e-03 -4.530000000000000064e-04 -2.130000000000000003e-04 -4.800000000000000122e-04 -3.539999999999999853e-04 1.039999999999999952e-02 4.673000000000000070e-03 -4.350000000000000026e-04 -5.150000000000000498e-04 -8.409999999999999507e-04 -4.339999999999999782e-04 8.437000000000000055e-03 4.401000000000000398e-03 -9.600000000000000243e-05 -1.015600000000000010e-02 -5.699000000000000073e-03 -1.910000000000000077e-04 -8.068000000000000518e-03 -4.516000000000000049e-03 -4.099999999999999912e-04 -2.519999999999999996e-04 -5.159999999999999656e-04 -3.379999999999999758e-04 1.042299999999999997e-02 4.452000000000000228e-03 -3.609999999999999928e-04 -4.970000000000000459e-04 -9.479999999999999495e-04 -4.300000000000000165e-05 8.342000000000000456e-03 4.402999999999999796e-03 -1.959999999999999937e-04 -1.016899999999999922e-02 -5.714999999999999594e-03 -2.449999999999999921e-04 -7.966000000000000858e-03 -4.566999999999999879e-03 -4.429999999999999802e-04 -2.519999999999999996e-04 -4.840000000000000010e-04 2.000000000000000164e-05 1.054100000000000002e-02 4.540999999999999898e-03 -4.130000000000000099e-04 -3.170000000000000075e-04 -7.370000000000000249e-04 -8.200000000000000095e-05 1.142199999999999986e-02 5.530000000000000193e-03 -1.939999999999999993e-04 -8.864999999999999616e-03 -4.605999999999999851e-03 -1.320000000000000101e-04 -9.794000000000000622e-03 -6.009999999999999717e-03 -4.879999999999999898e-04 -7.499999999999999343e-05 6.070000000000000092e-04 -1.420000000000000092e-04 1.069600000000000065e-02 4.440000000000000370e-03 -3.820000000000000153e-04 -3.289999999999999739e-04 -7.810000000000000102e-04 -3.680000000000000003e-04 1.140200000000000068e-02 5.518000000000000335e-03 -2.719999999999999979e-04 -8.869000000000000147e-03 -4.682000000000000398e-03 -1.879999999999999890e-04 -9.806000000000000480e-03 -5.986000000000000001e-03 -4.159999999999999744e-04 -1.340000000000000045e-04 5.609999999999999752e-04 -2.059999999999999928e-04 1.066699999999999940e-02 4.415999999999999787e-03 -4.440000000000000045e-04 -3.280000000000000038e-04 -7.560000000000000530e-04 -7.100000000000000462e-05 1.152700000000000079e-02 5.362999999999999712e-03 -1.160000000000000007e-04 -8.836999999999999370e-03 -4.507999999999999854e-03 -3.269999999999999795e-04 -9.698999999999999289e-03 -5.950999999999999693e-03 -4.820000000000000066e-04 -8.000000000000000654e-05 6.220000000000000485e-04 -2.220000000000000022e-04 1.072399999999999916e-02 4.506999999999999722e-03 -3.579999999999999741e-04 -3.339999999999999870e-04 7.799999999999999859e-05 -9.399999999999999448e-05 9.513999999999999888e-03 4.963000000000000397e-03 -1.730000000000000038e-04 -9.154000000000000678e-03 -4.704999999999999981e-03 -3.300000000000000253e-05 -1.035200000000000009e-02 -4.749999999999999882e-03 -4.939999999999999730e-04 -8.400000000000000348e-04 -2.840000000000000185e-04 -8.600000000000000331e-05 9.397000000000000838e-03 6.664999999999999918e-03 -4.180000000000000230e-04 -2.640000000000000202e-04 9.600000000000000243e-05 -1.579999999999999916e-04 9.504000000000000295e-03 4.976999999999999653e-03 -1.369999999999999961e-04 -9.233999999999999153e-03 -4.701000000000000317e-03 -1.959999999999999937e-04 -1.036699999999999948e-02 -4.826000000000000428e-03 -4.589999999999999896e-04 -8.379999999999999862e-04 -4.090000000000000211e-04 -2.269999999999999882e-04 9.312000000000000832e-03 6.513999999999999825e-03 -3.669999999999999760e-04 -2.829999999999999942e-04 3.000000000000000076e-06 -1.489999999999999897e-04 9.497999999999999499e-03 4.830000000000000092e-03 -1.310000000000000129e-04 -9.102999999999999980e-03 -4.755999999999999811e-03 -3.789999999999999966e-04 -1.040199999999999979e-02 -4.710999999999999910e-03 -4.339999999999999782e-04 -7.280000000000000230e-04 -3.350000000000000113e-04 -1.379999999999999933e-04 9.381999999999999715e-03 6.589000000000000239e-03 -3.289999999999999739e-04 -6.579999999999999478e-04 -4.240000000000000062e-04 -1.350000000000000017e-04 8.840000000000000635e-03 4.593999999999999993e-03 -4.580000000000000195e-04 -1.095400000000000020e-02 -4.407000000000000327e-03 -8.899999999999999491e-05 -8.755999999999999894e-03 -3.550999999999999903e-03 -5.169999999999999899e-04 -6.890000000000000508e-04 3.660000000000000059e-04 -1.459999999999999981e-04 1.037399999999999954e-02 4.480999999999999740e-03 -4.609999999999999840e-04 -6.160000000000000111e-04 -2.660000000000000146e-04 -1.869999999999999917e-04 8.878999999999999740e-03 4.740000000000000289e-03 -1.000000000000000048e-04 -1.086799999999999919e-02 -4.334000000000000179e-03 -2.959999999999999849e-04 -8.814999999999999919e-03 -3.468999999999999861e-03 -4.550000000000000008e-04 -7.190000000000000210e-04 3.739999999999999835e-04 -2.900000000000000017e-04 1.033199999999999917e-02 4.329000000000000382e-03 -3.099999999999999999e-04 -5.999999999999999474e-04 -3.939999999999999817e-04 -1.200000000000000030e-05 8.836999999999999370e-03 4.575000000000000074e-03 2.400000000000000061e-05 -1.089799999999999970e-02 -4.464000000000000086e-03 -1.320000000000000101e-04 -8.795000000000000734e-03 -3.307000000000000044e-03 -3.899999999999999929e-04 -7.349999999999999763e-04 4.260000000000000006e-04 5.800000000000000034e-05 1.046500000000000034e-02 4.320000000000000055e-03 -3.919999999999999873e-04 -3.660000000000000059e-04 -1.019999999999999992e-04 -1.820000000000000057e-04 1.017400000000000075e-02 4.989999999999999644e-03 -2.530000000000000239e-04 -7.569000000000000207e-03 -4.653000000000000018e-03 -1.489999999999999897e-04 -9.565999999999999850e-03 -5.094999999999999703e-03 -4.040000000000000080e-04 -2.439999999999999949e-04 -2.799999999999999755e-04 -2.770000000000000110e-04 1.045500000000000075e-02 5.448999999999999851e-03 -5.280000000000000405e-04 -3.009999999999999980e-04 -9.699999999999999963e-05 -9.100000000000000287e-05 1.024000000000000084e-02 4.978999999999999919e-03 -2.460000000000000164e-04 -7.668000000000000337e-03 -4.645999999999999956e-03 -2.290000000000000098e-04 -9.518000000000000418e-03 -5.083999999999999977e-03 -4.479999999999999933e-04 -2.799999999999999755e-04 -2.000000000000000096e-04 -1.859999999999999945e-04 1.047499999999999994e-02 5.546999999999999847e-03 -4.110000000000000155e-04 -3.400000000000000244e-04 -1.110000000000000011e-04 -1.350000000000000017e-04 1.016599999999999969e-02 5.015000000000000360e-03 -3.699999999999999811e-05 -7.661000000000000275e-03 -4.619999999999999975e-03 -2.369999999999999874e-04 -9.436999999999999209e-03 -4.963000000000000397e-03 -3.980000000000000248e-04 -2.369999999999999874e-04 -2.840000000000000185e-04 -9.799999999999999684e-05 1.041199999999999938e-02 5.432000000000000196e-03 -3.110000000000000243e-04 9.200000000000000007e-05 -1.116999999999999937e-03 -3.699999999999999811e-05 1.045199999999999949e-02 3.964999999999999775e-03 -1.969999999999999909e-04 -9.617000000000000548e-03 -5.004999999999999900e-03 -7.799999999999999859e-05 -1.012700000000000058e-02 -5.838000000000000307e-03 -5.069999999999999637e-04 -4.119999999999999856e-04 -4.279999999999999950e-04 -1.569999999999999944e-04 8.968999999999999542e-03 4.682000000000000398e-03 -5.100000000000000366e-04 6.499999999999999431e-05 -1.204999999999999908e-03 -1.700000000000000122e-04 1.058599999999999992e-02 3.867000000000000211e-03 -3.989999999999999949e-04 -9.809999999999999276e-03 -5.112000000000000224e-03 -1.749999999999999982e-04 -1.004999999999999991e-02 -5.854999999999999961e-03 -5.860000000000000408e-04 -4.539999999999999765e-04 -3.069999999999999812e-04 -2.100000000000000087e-04 8.994999999999999524e-03 4.728000000000000431e-03 -4.049999999999999781e-04 1.389999999999999905e-04 -1.139999999999999954e-03 -1.649999999999999991e-04 1.060200000000000031e-02 3.963000000000000377e-03 -2.290000000000000098e-04 -9.752999999999999517e-03 -4.970999999999999724e-03 -3.049999999999999868e-04 -1.013700000000000018e-02 -5.896000000000000199e-03 -2.770000000000000110e-04 -4.350000000000000026e-04 -3.719999999999999891e-04 -1.079999999999999960e-04 8.949000000000000357e-03 4.610000000000000382e-03