5.040327826225429249e+02 1.564299133448091668e-03 8.233153333937324352e-05 1.564299133448091668e-03 -6.724640812506991097e+02 -1.166145690678382607e+02 8.233153333937324352e-05 -1.166145690678382607e+02 1.293884917113920494e+02
5.039227876940014994e+02 6.895265917172509196e-03 -1.140909223250364674e-01 6.895265917172509196e-03 -6.726033450393426847e+02 -1.166196324571386356e+02 -1.140909223250364674e-01 -1.166196324571386356e+02 1.299378900333656759e+02
5.035163992454383788e+02 2.369089871840464670e-02 -2.220687282996244571e-01 2.369089871840464670e-02 -6.728755125056793531e+02 -1.164898779605957770e+02 -2.220687282996244571e-01 -1.164898779605957770e+02 1.301066902595947283e+02
5.040514307148442867e+02 4.878143350357864311e-02 -3.327634748744118243e-01 4.878143350357864311e-02 -6.721429882706756871e+02 -1.164652196663606532e+02 -3.327634748744118243e-01 -1.164652196663606532e+02 1.313554126257530186e+02
5.045606718314316481e+02 8.167288107265825714e-02 -4.393828105489001046e-01 8.167288107265825714e-02 -6.713040299459473772e+02 -1.162763511288801226e+02 -4.393828105489001046e-01 -1.162763511288801226e+02 1.324762947035185618e+02
