1.615920000000000023e+00 3.013259999999999827e+00 3.390190000000000037e+00 9.298300000000000454e-01 2.438530000000000086e+00 1.820529999999999982e+00 1.762040000000000051e+00 5.488499999999999490e-01 1.820640000000000036e+00 3.181400000000000006e+00 2.438530000000000086e+00 1.820529999999999982e+00 2.349470000000000169e+00 4.327989999999999782e+00 1.820659999999999945e+00 3.035369999999999902e+00 4.903019999999999712e+00 3.389889999999999848e+00 3.867490000000000094e+00 3.013250000000000206e+00 3.390190000000000037e+00 2.447929999999999939e+00 1.123899999999999899e+00 3.389860000000000095e+00 1.667249999999999899e+00 3.486720000000000041e+00 7.049470000000000347e+00 2.499449999999999950e+00 1.597050000000000081e+00 7.049599999999999866e+00 3.918820000000000192e+00 3.486730000000000107e+00 7.049479999999999968e+00 3.086879999999999846e+00 5.376199999999999868e+00 7.049619999999999997e+00 2.353349999999999831e+00 4.061440000000000161e+00 8.619139999999999802e+00 3.185340000000000060e+00 2.172079999999999789e+00 8.618809999999999860e+00 4.604930000000000412e+00 4.061449999999999783e+00 8.619149999999999423e+00 3.772810000000000219e+00 5.951209999999999667e+00 8.618830000000000879e+00 3.090759999999999952e+00 5.109659999999999869e+00 1.384808999999999912e+01 2.404659999999999798e+00 4.534919999999999618e+00 1.227842000000000056e+01 3.236870000000000136e+00 2.645249999999999879e+00 1.227853999999999957e+01 4.656250000000000000e+00 4.534919999999999618e+00 1.227842000000000056e+01 3.824310000000000098e+00 6.424389999999999823e+00 1.227856000000000058e+01 4.510209999999999830e+00 6.999410000000000132e+00 1.384775999999999918e+01 5.342329999999999579e+00 5.109659999999999869e+00 1.384807999999999950e+01 3.922759999999999803e+00 3.220289999999999875e+00 1.384775999999999918e+01 1.517249999999999988e+00 6.217780000000000307e+00 1.820519999999999916e+00 3.768829999999999902e+00 6.217769999999999797e+00 1.820519999999999916e+00 2.790789999999999882e+00 1.057174000000000014e+01 3.390169999999999906e+00 2.104690000000000172e+00 9.996999999999999886e+00 1.820510000000000073e+00 2.936890000000000001e+00 8.107279999999999376e+00 1.820640000000000036e+00 3.622809999999999864e+00 8.682299999999999685e+00 3.389850000000000030e+00 4.356279999999999930e+00 9.997019999999999129e+00 1.820489999999999942e+00 5.042370000000000019e+00 1.057174000000000014e+01 3.390159999999999840e+00 4.454939999999999678e+00 6.792469999999999786e+00 3.390179999999999971e+00 2.203380000000000116e+00 6.792469999999999786e+00 3.390169999999999906e+00 2.254659999999999886e+00 7.265970000000000262e+00 7.049470000000000347e+00 4.506240000000000023e+00 7.265970000000000262e+00 7.049470000000000347e+00 2.842119999999999980e+00 1.104519999999999946e+01 7.049439999999999706e+00 3.674319999999999808e+00 9.155480000000000729e+00 7.049579999999999735e+00 5.093689999999999607e+00 1.104521000000000086e+01 7.049439999999999706e+00 5.192359999999999864e+00 7.840659999999999741e+00 8.619130000000000180e+00 2.940780000000000172e+00 7.840659999999999741e+00 8.619120000000000559e+00 5.779790000000000205e+00 1.161993000000000009e+01 8.619109999999999161e+00 3.528200000000000003e+00 1.161993000000000009e+01 8.619109999999999161e+00 4.360219999999999985e+00 9.730499999999999261e+00 8.618790000000000617e+00 2.992090000000000138e+00 8.314159999999999329e+00 1.227839999999999954e+01 5.243660000000000210e+00 8.314170000000000726e+00 1.227840999999999916e+01 4.265609999999999680e+00 1.266812000000000005e+01 1.384806000000000026e+01 3.579520000000000035e+00 1.209340000000000082e+01 1.227839999999999954e+01 4.411730000000000373e+00 1.020368999999999993e+01 1.227852000000000032e+01 5.097649999999999793e+00 1.077870000000000061e+01 1.384773000000000032e+01 5.831100000000000172e+00 1.209341000000000044e+01 1.227838999999999992e+01 6.517210000000000392e+00 1.266812000000000005e+01 1.384806000000000026e+01 5.929780000000000051e+00 8.888870000000000715e+00 1.384806999999999988e+01 3.678209999999999980e+00 8.888859999999999317e+00 1.384806000000000026e+01 4.013609999999999900e+00 5.488499999999999490e-01 1.820640000000000036e+00 6.119089999999999918e+00 3.013250000000000206e+00 3.390179999999999971e+00 5.432990000000000208e+00 2.438520000000000021e+00 1.820519999999999916e+00 6.265189999999999593e+00 5.488499999999999490e-01 1.820650000000000102e+00 4.601049999999999862e+00 4.328000000000000291e+00 1.820670000000000011e+00 5.286970000000000169e+00 4.903010000000000090e+00 3.389870000000000161e+00 6.951080000000000148e+00 1.123890000000000056e+00 3.389860000000000095e+00 6.852619999999999933e+00 4.328009999999999913e+00 1.820659999999999945e+00 7.538540000000000241e+00 4.903019999999999712e+00 3.389870000000000161e+00 4.699510000000000076e+00 1.123890000000000056e+00 3.389860000000000095e+00 4.751039999999999708e+00 1.597050000000000081e+00 7.049590000000000245e+00 6.170399999999999885e+00 3.486720000000000041e+00 7.049479999999999968e+00 7.002600000000000158e+00 1.597050000000000081e+00 7.049590000000000245e+00 5.338460000000000427e+00 5.376210000000000377e+00 7.049610000000000376e+00 7.590049999999999741e+00 5.376199999999999868e+00 7.049619999999999997e+00 7.688500000000000334e+00 2.172089999999999854e+00 8.618809999999999860e+00 6.856499999999999595e+00 4.061449999999999783e+00 8.619139999999999802e+00 5.436919999999999753e+00 2.172079999999999789e+00 8.618800000000000239e+00 6.024379999999999846e+00 5.951209999999999667e+00 8.618819999999999482e+00 8.275949999999999918e+00 5.951220000000000176e+00 8.618830000000000879e+00 5.488450000000000273e+00 2.645249999999999879e+00 1.227853999999999957e+01 7.593919999999999781e+00 5.109650000000000247e+00 1.384806999999999988e+01 6.907809999999999562e+00 4.534919999999999618e+00 1.227842000000000056e+01 7.740020000000000344e+00 2.645249999999999879e+00 1.227852999999999994e+01 6.075890000000000235e+00 6.424389999999999823e+00 1.227856000000000058e+01 6.761790000000000411e+00 6.999410000000000132e+00 1.384777000000000058e+01 8.425919999999999632e+00 3.220289999999999875e+00 1.384775999999999918e+01 8.327469999999999928e+00 6.424400000000000333e+00 1.227854999999999919e+01 9.013379999999999725e+00 6.999410000000000132e+00 1.384775999999999918e+01 6.174330000000000318e+00 3.220289999999999875e+00 1.384775999999999918e+01 6.706529999999999880e+00 6.792480000000000295e+00 3.390169999999999906e+00 6.020410000000000039e+00 6.217780000000000307e+00 1.820519999999999916e+00 5.188469999999999693e+00 8.107290000000000774e+00 1.820629999999999971e+00 5.874390000000000001e+00 8.682299999999999685e+00 3.389839999999999964e+00 7.293940000000000090e+00 1.057174000000000014e+01 3.390159999999999840e+00 6.607840000000000380e+00 9.996999999999999886e+00 1.820500000000000007e+00 7.440050000000000274e+00 8.107290000000000774e+00 1.820629999999999971e+00 8.125980000000000203e+00 8.682299999999999685e+00 3.389850000000000030e+00 6.757830000000000226e+00 7.265959999999999752e+00 7.049470000000000347e+00 5.925880000000000258e+00 9.155490000000000350e+00 7.049590000000000245e+00 7.345259999999999678e+00 1.104521000000000086e+01 7.049450000000000216e+00 8.177479999999999194e+00 9.155480000000000729e+00 7.049579999999999735e+00 7.443950000000000067e+00 7.840659999999999741e+00 8.619130000000000180e+00 8.863379999999999370e+00 9.730510000000000659e+00 8.618790000000000617e+00 6.611810000000000187e+00 9.730510000000000659e+00 8.618790000000000617e+00 8.031370000000000786e+00 1.161993000000000009e+01 8.619109999999999161e+00 8.181350000000000122e+00 8.888870000000000715e+00 1.384806999999999988e+01 7.495239999999999903e+00 8.314180000000000348e+00 1.227840999999999916e+01 6.663310000000000066e+00 1.020368999999999993e+01 1.227852000000000032e+01 7.349219999999999864e+00 1.077868999999999922e+01 1.384773000000000032e+01 8.768779999999999575e+00 1.266813999999999929e+01 1.384805000000000064e+01 8.082679999999999865e+00 1.209340000000000082e+01 1.227838000000000029e+01 8.914880000000000138e+00 1.020368000000000031e+01 1.227852000000000032e+01 9.600799999999999557e+00 1.077870000000000061e+01 1.384773999999999994e+01 2.825820000000000221e+00 3.848959999999999937e+00 1.317830000000000057e+00 5.632200000000000539e-01 1.782850000000000046e+00 2.603029999999999955e+00 4.245400000000000063e+00 5.738260000000000360e+00 1.317320000000000046e+00 1.406379999999999963e+00 1.959079999999999933e+00 1.317339999999999955e+00 3.402239999999999931e+00 5.562039999999999651e+00 2.603040000000000020e+00 1.982669999999999932e+00 3.672429999999999861e+00 2.603009999999999824e+00 2.814779999999999838e+00 1.782850000000000046e+00 2.603040000000000020e+00 3.657939999999999969e+00 1.959079999999999933e+00 1.317339999999999955e+00 1.993819999999999926e+00 5.738249999999999851e+00 1.317320000000000046e+00 1.150640000000000107e+00 5.562030000000000030e+00 2.603040000000000020e+00 1.139620000000000077e+00 3.493879999999999875e+00 3.890080000000000204e+00 1.971530000000000005e+00 1.604519999999999946e+00 3.889969999999999928e+00 3.391199999999999992e+00 3.493869999999999809e+00 3.890060000000000073e+00 2.558959999999999901e+00 5.383740000000000414e+00 3.889990000000000059e+00 1.300620000000000109e+00 2.831039999999999779e+00 7.831979999999999720e+00 1.888069999999999915e+00 6.610229999999999606e+00 7.831979999999999720e+00 4.139639999999999986e+00 6.610240000000000116e+00 7.831970000000000098e+00 2.731230000000000047e+00 6.786450000000000315e+00 6.546280000000000321e+00 4.982809999999999739e+00 6.786439999999999806e+00 6.546269999999999811e+00 2.143790000000000084e+00 3.007280000000000175e+00 6.546299999999999564e+00 3.563250000000000028e+00 4.897140000000000271e+00 6.546770000000000422e+00 2.720079999999999831e+00 4.720609999999999751e+00 7.831959999999999589e+00 3.552210000000000090e+00 2.831049999999999844e+00 7.831990000000000229e+00 4.395360000000000156e+00 3.007270000000000110e+00 6.546299999999999564e+00 1.877019999999999911e+00 4.542080000000000339e+00 9.119020000000000792e+00 2.708940000000000126e+00 2.652709999999999901e+00 9.118909999999999627e+00 4.128619999999999735e+00 4.542069999999999830e+00 9.119030000000000413e+00 3.296359999999999957e+00 6.431949999999999612e+00 9.118940000000000268e+00 4.877060000000000173e+00 7.658419999999999561e+00 1.306093000000000082e+01 2.038050000000000139e+00 3.879239999999999799e+00 1.306094000000000044e+01 4.033789999999999765e+00 7.480139999999999567e+00 1.434788999999999959e+01 2.614440000000000097e+00 5.590270000000000294e+00 1.434797000000000011e+01 3.457489999999999952e+00 5.768819999999999837e+00 1.306090999999999980e+01 3.446349999999999802e+00 3.700919999999999987e+00 1.434787999999999997e+01 4.289609999999999701e+00 3.879239999999999799e+00 1.306094000000000044e+01 4.866030000000000300e+00 5.590270000000000294e+00 1.434798999999999936e+01 2.625480000000000036e+00 7.658419999999999561e+00 1.306094000000000044e+01 4.300670000000000215e+00 5.945350000000000357e+00 1.177571999999999974e+01 5.720220000000000304e+00 7.834649999999999892e+00 1.177521999999999913e+01 2.881200000000000205e+00 4.055480000000000196e+00 1.177524999999999977e+01 5.132780000000000342e+00 4.055480000000000196e+00 1.177524999999999977e+01 3.468649999999999789e+00 7.834649999999999892e+00 1.177521999999999913e+01 3.413289999999999935e+00 7.628099999999999881e+00 1.317800000000000082e+00 1.738070000000000004e+00 9.341240000000000876e+00 2.603079999999999838e+00 3.989660000000000206e+00 9.341250000000000497e+00 2.603070000000000217e+00 4.832849999999999646e+00 9.517429999999999168e+00 1.317320000000000046e+00 2.570100000000000051e+00 7.451629999999999754e+00 2.603029999999999955e+00 4.000729999999999897e+00 1.140731000000000073e+01 1.317839999999999900e+00 2.581269999999999953e+00 9.517419999999999547e+00 1.317329999999999890e+00 3.157519999999999882e+00 1.123081999999999958e+01 2.603029999999999955e+00 1.727070000000000105e+00 7.273060000000000080e+00 3.890099999999999891e+00 3.978639999999999954e+00 7.273049999999999571e+00 3.890099999999999891e+00 2.314509999999999845e+00 1.105221000000000053e+01 3.890070000000000139e+00 3.146399999999999864e+00 9.162890000000000867e+00 3.889979999999999993e+00 4.566089999999999982e+00 1.105222000000000016e+01 3.890070000000000139e+00 2.475499999999999812e+00 1.038944000000000045e+01 7.832019999999999982e+00 4.727079999999999949e+00 1.038945000000000007e+01 7.832010000000000360e+00 3.894940000000000069e+00 1.227901999999999916e+01 7.831999999999999851e+00 4.150719999999999743e+00 8.676289999999999836e+00 6.546759999999999913e+00 3.318680000000000074e+00 1.056561999999999912e+01 6.546280000000000321e+00 5.570269999999999833e+00 1.056561999999999912e+01 6.546289999999999942e+00 3.307519999999999794e+00 8.499819999999999709e+00 7.831999999999999851e+00 4.738150000000000084e+00 1.245551000000000030e+01 6.546789999999999665e+00 2.464480000000000004e+00 8.321260000000000545e+00 9.119049999999999656e+00 4.716059999999999697e+00 8.321260000000000545e+00 9.119049999999999656e+00 3.051930000000000032e+00 1.210041000000000011e+01 9.119009999999999394e+00 3.883840000000000181e+00 1.021109000000000044e+01 9.118949999999999889e+00 5.303519999999999790e+00 1.210041000000000011e+01 9.119030000000000413e+00 6.040919999999999845e+00 1.314860999999999969e+01 1.434797000000000011e+01 3.212919999999999998e+00 1.143764000000000003e+01 1.306095999999999968e+01 5.464480000000000004e+00 1.143763000000000041e+01 1.306096999999999930e+01 3.201900000000000190e+00 9.369460000000000122e+00 1.434800000000000075e+01 4.044929999999999914e+00 9.548030000000000683e+00 1.306093000000000082e+01 5.453479999999999883e+00 9.369460000000000122e+00 1.434798999999999936e+01 3.789340000000000153e+00 1.314860999999999969e+01 1.434797999999999973e+01 4.632349999999999746e+00 1.332720999999999911e+01 1.306094000000000044e+01 4.621240000000000236e+00 1.125929000000000002e+01 1.434788999999999959e+01 4.888110000000000177e+00 9.724489999999999412e+00 1.177571999999999974e+01 5.475550000000000139e+00 1.350370999999999988e+01 1.177572999999999936e+01 6.307680000000000398e+00 1.161382000000000048e+01 1.177524999999999977e+01 4.056099999999999817e+00 1.161383000000000010e+01 1.177524000000000015e+01 5.077399999999999913e+00 3.848939999999999806e+00 1.317830000000000057e+00 5.653810000000000002e+00 5.562030000000000030e+00 2.603019999999999889e+00 6.496970000000000134e+00 5.738260000000000360e+00 1.317309999999999981e+00 5.066360000000000419e+00 1.782859999999999889e+00 2.603019999999999889e+00 5.909530000000000172e+00 1.959089999999999998e+00 1.317339999999999955e+00 7.328990000000000116e+00 3.848949999999999871e+00 1.317809999999999926e+00 6.485829999999999984e+00 3.672410000000000174e+00 2.603000000000000203e+00 4.234230000000000160e+00 3.672419999999999796e+00 2.603000000000000203e+00 4.223099999999999632e+00 1.604519999999999946e+00 3.889959999999999862e+00 5.642769999999999619e+00 3.493879999999999875e+00 3.890070000000000139e+00 6.474669999999999703e+00 1.604510000000000103e+00 3.889959999999999862e+00 4.810529999999999973e+00 5.383740000000000414e+00 3.889990000000000059e+00 7.062120000000000175e+00 5.383740000000000414e+00 3.889979999999999993e+00 4.971650000000000347e+00 4.720609999999999751e+00 7.831949999999999967e+00 6.391230000000000189e+00 6.610229999999999606e+00 7.831970000000000098e+00 7.223239999999999661e+00 4.720609999999999751e+00 7.831949999999999967e+00 8.066409999999999414e+00 4.897149999999999892e+00 6.546770000000000422e+00 6.646950000000000358e+00 3.007270000000000110e+00 6.546289999999999942e+00 5.814829999999999721e+00 4.897140000000000271e+00 6.546770000000000422e+00 7.234390000000000320e+00 6.786450000000000315e+00 6.546269999999999811e+00 5.803790000000000227e+00 2.831049999999999844e+00 7.831990000000000229e+00 4.960519999999999818e+00 2.652730000000000032e+00 9.118909999999999627e+00 6.380180000000000184e+00 4.542069999999999830e+00 9.119030000000000413e+00 7.212089999999999890e+00 2.652719999999999967e+00 9.118919999999999249e+00 5.547939999999999650e+00 6.431949999999999612e+00 9.118930000000000646e+00 7.799529999999999852e+00 6.431939999999999991e+00 9.118940000000000268e+00 8.536949999999999150e+00 7.480139999999999567e+00 1.434788999999999959e+01 7.128630000000000244e+00 7.658430000000000071e+00 1.306093000000000082e+01 5.697919999999999874e+00 3.700919999999999987e+00 1.434787000000000035e+01 6.541199999999999903e+00 3.879230000000000178e+00 1.306093000000000082e+01 7.117600000000000371e+00 5.590270000000000294e+00 1.434797999999999973e+01 7.960659999999999847e+00 5.768810000000000215e+00 1.306090999999999980e+01 7.949499999999999567e+00 3.700930000000000053e+00 1.434787999999999997e+01 6.285370000000000346e+00 7.480150000000000077e+00 1.434788999999999959e+01 5.709069999999999645e+00 5.768810000000000215e+00 1.306090999999999980e+01 6.552229999999999777e+00 5.945350000000000357e+00 1.177571999999999974e+01 8.803819999999999979e+00 5.945359999999999978e+00 1.177572999999999936e+01 7.971809999999999619e+00 7.834649999999999892e+00 1.177521999999999913e+01 7.384350000000000414e+00 4.055489999999999817e+00 1.177524999999999977e+01 7.660689999999999777e+00 1.123081999999999958e+01 2.603029999999999955e+00 8.503890000000000171e+00 1.140731000000000073e+01 1.317839999999999900e+00 7.916459999999999830e+00 7.628099999999999881e+00 1.317800000000000082e+00 7.073260000000000325e+00 7.451640000000000263e+00 2.603040000000000020e+00 5.664880000000000138e+00 7.628099999999999881e+00 1.317800000000000082e+00 6.252309999999999590e+00 1.140732000000000035e+01 1.317819999999999991e+00 6.241229999999999833e+00 9.341260000000000119e+00 2.603079999999999838e+00 7.084430000000000227e+00 9.517429999999999168e+00 1.317339999999999955e+00 5.409099999999999575e+00 1.123082999999999920e+01 2.603050000000000086e+00 4.821659999999999613e+00 7.451620000000000132e+00 2.603029999999999955e+00 6.230220000000000091e+00 7.273049999999999571e+00 3.890089999999999826e+00 5.397990000000000066e+00 9.162890000000000867e+00 3.889979999999999993e+00 6.817660000000000053e+00 1.105222000000000016e+01 3.890070000000000139e+00 7.649580000000000268e+00 9.162900000000000489e+00 3.889979999999999993e+00 6.146519999999999762e+00 1.227901999999999916e+01 7.831990000000000229e+00 5.559090000000000309e+00 8.499819999999999709e+00 7.831990000000000229e+00 7.821839999999999904e+00 1.056563000000000052e+01 6.546269999999999811e+00 6.978650000000000020e+00 1.038945999999999970e+01 7.832010000000000360e+00 8.398110000000000852e+00 1.227901999999999916e+01 7.831990000000000229e+00 9.241289999999999338e+00 1.245551999999999992e+01 6.546780000000000044e+00 8.653859999999999886e+00 8.676289999999999836e+00 6.546750000000000291e+00 7.810660000000000380e+00 8.499829999999999330e+00 7.831990000000000229e+00 6.402280000000000193e+00 8.676289999999999836e+00 6.546759999999999913e+00 6.989720000000000155e+00 1.245550000000000068e+01 6.546789999999999665e+00 6.967629999999999768e+00 8.321260000000000545e+00 9.119030000000000413e+00 6.135410000000000252e+00 1.021110000000000007e+01 9.118940000000000268e+00 7.555080000000000240e+00 1.210041000000000011e+01 9.119009999999999394e+00 8.387000000000000455e+00 1.021109000000000044e+01 9.118930000000000646e+00 9.124409999999999243e+00 1.125929000000000002e+01 1.434788999999999959e+01 7.705059999999999576e+00 9.369450000000000500e+00 1.434800000000000075e+01 8.548090000000000188e+00 9.548019999999999285e+00 1.306093000000000082e+01 9.135529999999999262e+00 1.332722000000000051e+01 1.306095000000000006e+01 6.872830000000000439e+00 1.125929999999999964e+01 1.434789999999999921e+01 7.716070000000000206e+00 1.143764000000000003e+01 1.306096999999999930e+01 8.292500000000000426e+00 1.314860999999999969e+01 1.434797999999999973e+01 6.883949999999999569e+00 1.332722000000000051e+01 1.306094000000000044e+01 6.296499999999999986e+00 9.548030000000000683e+00 1.306094000000000044e+01 9.978709999999999525e+00 1.350370999999999988e+01 1.177574000000000076e+01 7.139689999999999870e+00 9.724489999999999412e+00 1.177571999999999974e+01 8.559260000000000090e+00 1.161381000000000085e+01 1.177524000000000015e+01 7.727129999999999832e+00 1.350370999999999988e+01 1.177572999999999936e+01 9.391280000000000072e+00 9.724489999999999412e+00 1.177571999999999974e+01