8.690554384979999668e+03
8.139381846729999779e+03
6.873404375350000009e+03
5.735014977900000304e+03
5.056749912500000391e+03
4.688198588170000221e+03
4.471018602950000059e+03
4.325536356599999635e+03
4.215986151969999810e+03
4.126250039700000343e+03
