1.304970109999999863e+02 -1.902798459999999920e+02 -1.086451229999999981e+02 -1.283183980000000020e+02 1.896515390000000139e+02 1.067178689999999932e+02 -1.288148400000000038e+02 1.901207750000000090e+02 1.071855379999999940e+02 -1.283204870000000142e+02 1.896495079999999973e+02 1.067240520000000004e+02 -1.288355770000000007e+02 1.901468120000000113e+02 1.072132189999999952e+02 1.302163329999999917e+02 -1.901334359999999890e+02 -1.083496300000000048e+02 1.304986399999999946e+02 -1.902818599999999947e+02 -1.086447309999999931e+02 1.302673519999999883e+02 -1.901841459999999984e+02 -1.084003340000000009e+02 -1.283412739999999985e+02 1.896717160000000035e+02 1.067395340000000061e+02 -1.287996689999999944e+02 1.901063259999999957e+02 1.071691560000000010e+02 -1.283320349999999905e+02 1.896676319999999976e+02 1.067325230000000005e+02 -1.288069920000000081e+02 1.901205129999999883e+02 1.071829290000000015e+02 1.304850920000000087e+02 -1.902618420000000015e+02 -1.086145329999999944e+02 1.302686449999999923e+02 -1.901858760000000075e+02 -1.084022010000000051e+02 1.304886229999999898e+02 -1.902668390000000045e+02 -1.086302989999999937e+02 1.301944489999999917e+02 -1.901061679999999967e+02 -1.083184069999999934e+02 1.304921779999999956e+02 -1.902685630000000003e+02 -1.086285220000000038e+02 -1.283442929999999933e+02 1.896734209999999905e+02 1.067454000000000036e+02 -1.288041039999999953e+02 1.901158120000000054e+02 1.071815799999999967e+02 -1.283442359999999951e+02 1.896717759999999942e+02 1.067454740000000015e+02 -1.288287510000000111e+02 1.901366250000000093e+02 1.072054920000000067e+02 1.301920220000000086e+02 -1.901169639999999958e+02 -1.083242390000000057e+02 1.304765620000000013e+02 -1.902596639999999866e+02 -1.086301689999999951e+02 1.302634960000000035e+02 -1.901744410000000016e+02 -1.083913929999999937e+02 -1.282721390000000099e+02 1.896030920000000037e+02 1.066720409999999930e+02 -1.282780510000000049e+02 1.896035449999999969e+02 1.066759870000000063e+02 1.305709469999999897e+02 -1.903462930000000028e+02 -1.087216240000000056e+02 -1.282588049999999953e+02 1.895845150000000103e+02 1.066534740000000028e+02 -1.287412940000000106e+02 1.900573310000000049e+02 1.071125750000000068e+02 1.302742020000000025e+02 -1.901932999999999936e+02 -1.084081489999999945e+02 -1.282618260000000134e+02 1.895839080000000081e+02 1.066567309999999935e+02 1.305566780000000051e+02 -1.903404549999999915e+02 -1.087075940000000003e+02 1.304981510000000071e+02 -1.902818000000000040e+02 -1.086502880000000033e+02 1.304878050000000087e+02 -1.902751619999999946e+02 -1.086405809999999974e+02 -1.282799339999999972e+02 1.896123019999999997e+02 1.066780320000000017e+02 -1.282700289999999939e+02 1.896084569999999871e+02 1.066673629999999946e+02 -1.282742450000000076e+02 1.896004269999999963e+02 1.066699320000000029e+02 -1.287553910000000030e+02 1.900610839999999939e+02 1.071243020000000001e+02 -1.282687040000000138e+02 1.895975039999999865e+02 1.066561980000000034e+02 1.304914949999999862e+02 -1.902797360000000140e+02 -1.086460569999999990e+02 1.304784019999999884e+02 -1.902720449999999914e+02 -1.086342379999999963e+02 1.305583479999999952e+02 -1.903383129999999994e+02 -1.087120110000000039e+02 1.305637010000000089e+02 -1.903493540000000053e+02 -1.087148250000000047e+02 1.302577919999999949e+02 -1.901848310000000026e+02 -1.084090300000000013e+02 -1.282933130000000119e+02 1.896173139999999933e+02 1.066940799999999996e+02 -1.282805199999999957e+02 1.896119119999999896e+02 1.066853449999999981e+02 1.305498299999999858e+02 -1.903306320000000085e+02 -1.087044410000000028e+02 -1.282768360000000030e+02 1.896026860000000056e+02 1.066649919999999980e+02 -1.287668180000000007e+02 1.900833340000000078e+02 1.071351700000000022e+02 1.302539779999999894e+02 -1.901781090000000063e+02 -1.083903070000000071e+02 -1.282720569999999896e+02 1.895949510000000089e+02 1.066579969999999946e+02 1.305465920000000040e+02 -1.903251899999999921e+02 -1.086966019999999986e+02 1.304940589999999929e+02 -1.902836200000000133e+02 -1.086496539999999982e+02 1.304604789999999923e+02 -1.902477079999999887e+02 -1.086133460000000071e+02 -1.287913939999999968e+02 1.900968680000000006e+02 1.071641139999999979e+02 1.304853520000000060e+02 -1.902636300000000062e+02 -1.086257119999999929e+02 -1.283433919999999944e+02 1.896705919999999992e+02 1.067397540000000049e+02 -1.287933449999999880e+02 1.901067840000000047e+02 1.071629060000000067e+02 -1.288144230000000050e+02 1.901363560000000064e+02 1.071964179999999942e+02 1.301956350000000100e+02 -1.901087300000000084e+02 -1.083239870000000025e+02 1.302729889999999955e+02 -1.901816129999999987e+02 -1.084018190000000033e+02 -1.288123229999999921e+02 1.901216300000000103e+02 1.071889149999999944e+02 1.302168299999999874e+02 -1.901429610000000139e+02 -1.083470219999999955e+02 1.302704999999999984e+02 -1.901789080000000070e+02 -1.083997909999999933e+02 -1.287990120000000047e+02 1.901133969999999920e+02 1.071740850000000052e+02 -1.283275130000000104e+02 1.896589219999999898e+02 1.067228510000000057e+02 -1.288073929999999905e+02 1.901147290000000112e+02 1.071747390000000024e+02 -1.288108660000000043e+02 1.901261959999999931e+02 1.071890499999999946e+02 -1.288106469999999888e+02 1.901245169999999973e+02 1.071928850000000040e+02 1.302645760000000053e+02 -1.901784670000000119e+02 -1.083962709999999987e+02 1.304828939999999875e+02 -1.902579829999999959e+02 -1.086217450000000042e+02 1.302609919999999875e+02 -1.901819820000000050e+02 -1.083949829999999963e+02 1.301944929999999943e+02 -1.901120679999999936e+02 -1.083239569999999929e+02 1.302094940000000065e+02 -1.901277120000000025e+02 -1.083396330000000063e+02 -1.288173339999999882e+02 1.901278230000000065e+02 1.071931459999999987e+02 1.304805049999999937e+02 -1.902630249999999990e+02 -1.086260039999999947e+02 -1.283490140000000110e+02 1.896726260000000082e+02 1.067461899999999986e+02 -1.288162020000000041e+02 1.901218670000000088e+02 1.071809209999999979e+02 -1.288338789999999960e+02 1.901500000000000057e+02 1.072222720000000038e+02 1.301916260000000136e+02 -1.901140890000000070e+02 -1.083210140000000052e+02 1.302491660000000024e+02 -1.901629770000000121e+02 -1.083818590000000057e+02 -1.288406400000000076e+02 1.901482000000000028e+02 1.072210520000000002e+02 1.301855539999999962e+02 -1.901086960000000090e+02 -1.083140180000000043e+02 1.302594420000000071e+02 -1.901741020000000049e+02 -1.083880379999999946e+02 1.305000489999999900e+02 -1.902806919999999877e+02 -1.086475250000000017e+02 -1.282684050000000013e+02 1.896060699999999883e+02 1.066744929999999982e+02 -1.287395989999999983e+02 1.900502099999999928e+02 1.071102149999999966e+02 1.302664179999999874e+02 -1.901894279999999924e+02 -1.084046479999999946e+02 1.305578800000000115e+02 -1.903356929999999920e+02 -1.087093969999999956e+02 -1.282638969999999858e+02 1.895864939999999876e+02 1.066511979999999937e+02 -1.287492599999999925e+02 1.900539489999999887e+02 1.071141319999999979e+02 1.302646190000000104e+02 -1.901912839999999960e+02 -1.083990469999999959e+02 -1.282843959999999868e+02 1.896212910000000136e+02 1.066821259999999967e+02 -1.287332710000000020e+02 1.900483800000000087e+02 1.071027530000000070e+02 -1.282542410000000075e+02 1.895841169999999920e+02 1.066452979999999968e+02 -1.287478949999999998e+02 1.900635479999999973e+02 1.071228710000000035e+02 1.304873839999999916e+02 -1.902704860000000053e+02 -1.086280469999999951e+02 1.302711999999999932e+02 -1.901971849999999904e+02 -1.084143219999999985e+02 1.302650549999999896e+02 -1.901829520000000002e+02 -1.084066409999999934e+02 1.305675540000000012e+02 -1.903401250000000005e+02 -1.087110760000000056e+02 1.304929280000000063e+02 -1.902779219999999896e+02 -1.086501590000000022e+02 -1.282844530000000134e+02 1.896100480000000061e+02 1.066805090000000007e+02 -1.287630770000000098e+02 1.900799199999999871e+02 1.071324110000000047e+02 1.302432059999999865e+02 -1.901733930000000043e+02 -1.083907530000000037e+02 1.305463770000000068e+02 -1.903288110000000017e+02 -1.087033090000000044e+02 -1.282733179999999891e+02 1.895951680000000010e+02 1.066570880000000017e+02 -1.287611630000000105e+02 1.900700119999999913e+02 1.071227099999999979e+02 1.302671269999999879e+02 -1.901881600000000105e+02 -1.084123120000000000e+02 1.650890980000000070e+02 -1.433685490000000016e+02 -2.099325729999999908e+02 -7.916149999999999576e-01 -1.071302999999999894e+00 1.420293000000000028e+00 1.644718929999999943e+02 -1.428667580000000044e+02 -2.093230330000000095e+02 1.645232369999999946e+02 -1.428976940000000013e+02 -2.093838369999999998e+02 -7.918950000000000156e-01 -1.073307999999999929e+00 1.416984000000000021e+00 -9.008209999999999829e-01 -1.177354999999999929e+00 1.568373000000000017e+00 -7.862270000000000092e-01 -1.060508999999999924e+00 1.405078000000000049e+00 1.645216399999999908e+02 -1.428998330000000010e+02 -2.093848329999999862e+02 1.644671119999999860e+02 -1.428680679999999938e+02 -2.093149669999999958e+02 -7.850000000000000311e-01 -1.065463000000000049e+00 1.406676000000000037e+00 -1.658602869999999996e+02 1.447137079999999969e+02 2.097950759999999946e+02 -1.656713790000000017e+02 1.444556629999999871e+02 2.096591950000000111e+02 -1.658602950000000078e+02 1.447178350000000080e+02 2.097932059999999979e+02 -1.656075250000000096e+02 1.444244669999999928e+02 2.095810909999999865e+02 -7.919469999999999565e-01 -1.066341999999999901e+00 1.412824999999999998e+00 -7.938150000000000484e-01 -1.071015999999999968e+00 1.416406999999999972e+00 -7.962479999999999558e-01 -1.073684000000000083e+00 1.422852000000000006e+00 1.644762489999999957e+02 -1.428731659999999977e+02 -2.093266160000000013e+02 1.644665599999999870e+02 -1.428667289999999923e+02 -2.093193109999999990e+02 1.645449930000000052e+02 -1.429215680000000077e+02 -2.094034880000000101e+02 1.650558139999999980e+02 -1.433390870000000064e+02 -2.098988129999999899e+02 -8.992590000000000305e-01 -1.175197999999999965e+00 1.564672000000000063e+00 -7.898570000000000313e-01 -1.065782999999999925e+00 1.413229000000000068e+00 1.645331260000000100e+02 -1.429166769999999929e+02 -2.093988679999999931e+02 -1.658451860000000124e+02 1.446943449999999984e+02 2.097655460000000005e+02 -1.656701579999999865e+02 1.444590739999999869e+02 2.096566840000000127e+02 -1.658509720000000129e+02 1.447040599999999984e+02 2.097797850000000039e+02 -1.655821880000000021e+02 1.443967179999999928e+02 2.095494319999999959e+02 -7.873019999999999463e-01 -1.065477000000000007e+00 1.408927000000000040e+00 -7.911650000000000071e-01 -1.066017999999999910e+00 1.414689000000000085e+00 -1.655860179999999957e+02 1.444045580000000086e+02 2.095635130000000004e+02 -1.658546969999999874e+02 1.447037740000000099e+02 2.097814329999999927e+02 -8.992660000000000098e-01 -1.175168999999999908e+00 1.564075000000000104e+00 -1.656649060000000020e+02 1.444483260000000087e+02 2.096472559999999987e+02 -7.891639999999999766e-01 -1.062419999999999920e+00 1.407747000000000082e+00 -1.658395270000000039e+02 1.446922380000000032e+02 2.097818849999999884e+02 -7.853369999999999518e-01 -1.058958000000000066e+00 1.402422999999999975e+00 1.650814609999999902e+02 -1.433591360000000066e+02 -2.099254310000000032e+02 1.644765889999999899e+02 -1.428768650000000093e+02 -2.093317330000000140e+02 1.645476889999999912e+02 -1.429223010000000045e+02 -2.094117229999999950e+02 1.645468410000000006e+02 -1.429230799999999988e+02 -2.094091789999999946e+02 1.644859730000000013e+02 -1.428847480000000019e+02 -2.093361380000000054e+02 1.649784630000000050e+02 -1.432953229999999962e+02 -2.098043189999999925e+02 -7.643950000000000466e-01 -1.029994000000000076e+00 1.367296000000000067e+00 -7.634159999999999835e-01 -1.028802999999999912e+00 1.367232999999999921e+00 1.644430810000000065e+02 -1.428589709999999968e+02 -2.092848209999999938e+02 -8.814020000000000188e-01 -1.149958000000000036e+00 1.531932000000000071e+00 1.650571640000000002e+02 -1.433524409999999989e+02 -2.098857240000000104e+02 1.644458799999999883e+02 -1.428556210000000135e+02 -2.092861110000000053e+02 -8.764929999999999666e-01 -1.138430999999999971e+00 1.521401000000000003e+00 -1.658560219999999958e+02 1.447026490000000081e+02 2.097982230000000072e+02 -1.658655579999999929e+02 1.447120229999999879e+02 2.098074479999999937e+02 -1.659481269999999995e+02 1.447619599999999878e+02 2.098998039999999889e+02 -1.656817969999999889e+02 1.444616159999999923e+02 2.096712269999999876e+02 -1.659369010000000060e+02 1.447527039999999943e+02 2.098880069999999876e+02 -7.642400000000000304e-01 -1.029136999999999968e+00 1.364705000000000057e+00 -7.685880000000000489e-01 -1.032697999999999894e+00 1.372568000000000010e+00 -8.731790000000000385e-01 -1.138870000000000049e+00 1.518089999999999939e+00 1.649873279999999909e+02 -1.433021489999999858e+02 -2.098093529999999873e+02 1.644594329999999900e+02 -1.428732799999999941e+02 -2.093017429999999877e+02 1.644532890000000123e+02 -1.428697620000000086e+02 -2.092910009999999943e+02 -8.755309999999999482e-01 -1.140535000000000077e+00 1.522980999999999918e+00 1.650399569999999869e+02 -1.433347440000000006e+02 -2.098727839999999958e+02 -1.658485709999999926e+02 1.447009109999999907e+02 2.097921039999999948e+02 -1.658613550000000032e+02 1.447136490000000038e+02 2.098028030000000115e+02 -1.659426259999999900e+02 1.447602300000000071e+02 2.098956200000000081e+02 -1.656649480000000096e+02 1.444555019999999956e+02 2.096699500000000000e+02 -1.659383630000000096e+02 1.447542320000000018e+02 2.098905320000000074e+02 -1.659240330000000085e+02 1.447401450000000125e+02 2.098713730000000055e+02 -7.697589999999999710e-01 -1.038461999999999996e+00 1.375725000000000087e+00 -7.620989999999999709e-01 -1.028124999999999956e+00 1.363167000000000018e+00 -1.658277559999999937e+02 1.446786840000000041e+02 2.097694189999999992e+02 -8.803189999999999626e-01 -1.143437000000000037e+00 1.527887999999999913e+00 -1.658635309999999947e+02 1.447118849999999952e+02 2.098081720000000132e+02 -1.659260280000000023e+02 1.447499980000000050e+02 2.098806150000000059e+02 -8.772750000000000270e-01 -1.141890999999999989e+00 1.523444999999999938e+00 -1.656639539999999897e+02 1.444408239999999921e+02 2.096599769999999978e+02 1.650031889999999919e+02 -1.433283979999999929e+02 -2.098239419999999882e+02 1.650475969999999961e+02 -1.433464030000000093e+02 -2.098848859999999945e+02 1.644575409999999920e+02 -1.428681489999999883e+02 -2.092910219999999981e+02 1.644640200000000050e+02 -1.428702690000000075e+02 -2.093048389999999870e+02 1.650700139999999863e+02 -1.433559150000000102e+02 -2.099153660000000059e+02 -7.951129999999999587e-01 -1.074260999999999910e+00 1.420722999999999958e+00 1.644657829999999876e+02 -1.428656300000000101e+02 -2.093244410000000073e+02 -7.953740000000000254e-01 -1.070308000000000037e+00 1.420063999999999993e+00 1.645485199999999963e+02 -1.429189849999999922e+02 -2.094060770000000105e+02 1.650633609999999862e+02 -1.433432740000000081e+02 -2.099034259999999961e+02 -8.981860000000000399e-01 -1.176890999999999909e+00 1.565503000000000089e+00 -9.021010000000000417e-01 -1.178962999999999983e+00 1.569981000000000071e+00 -1.656686760000000049e+02 1.444570860000000039e+02 2.096484509999999943e+02 -1.658461069999999893e+02 1.446978790000000004e+02 2.097738940000000127e+02 -1.656725219999999865e+02 1.444588960000000100e+02 2.096520659999999907e+02 -1.655850230000000067e+02 1.443972559999999987e+02 2.095550819999999987e+02 -1.656117399999999975e+02 1.444276859999999942e+02 2.095869849999999985e+02 -9.020110000000000072e-01 -1.176833000000000018e+00 1.565558000000000005e+00 -7.962550000000000461e-01 -1.074078000000000088e+00 1.423743999999999899e+00 -9.017330000000000068e-01 -1.177524000000000015e+00 1.566121000000000096e+00 1.650621260000000063e+02 -1.433456639999999993e+02 -2.099116539999999986e+02 1.645283809999999960e+02 -1.429019700000000057e+02 -2.093925790000000120e+02 1.650635399999999890e+02 -1.433480150000000037e+02 -2.099043200000000127e+02 1.644790790000000129e+02 -1.428772179999999992e+02 -2.093355479999999886e+02 -7.909819999999999629e-01 -1.069161000000000028e+00 1.416460999999999970e+00 -1.656616940000000113e+02 1.444542710000000056e+02 2.096478260000000091e+02 -1.658440239999999903e+02 1.446940209999999922e+02 2.097724739999999883e+02 -1.656660770000000014e+02 1.444555909999999983e+02 2.096509130000000027e+02 -1.655842550000000131e+02 1.444013679999999908e+02 2.095543279999999982e+02 -1.656037750000000131e+02 1.444188660000000084e+02 2.095763350000000003e+02 -1.655808869999999899e+02 1.443938760000000059e+02 2.095549469999999985e+02 -7.903660000000000130e-01 -1.068594999999999962e+00 1.411937999999999915e+00 -1.656609689999999944e+02 1.444500140000000101e+02 2.096433269999999993e+02 -7.878110000000000390e-01 -1.063700000000000090e+00 1.409990000000000077e+00 -1.658464720000000057e+02 1.446950009999999907e+02 2.097809579999999983e+02 -8.946899999999999853e-01 -1.167308999999999930e+00 1.556583000000000050e+00 -1.656488589999999874e+02 1.444383569999999963e+02 2.096337670000000060e+02 -1.655830159999999864e+02 1.444062690000000089e+02 2.095562610000000063e+02 -8.990310000000000246e-01 -1.172590000000000021e+00 1.563118999999999925e+00 1.650890829999999880e+02 -1.433723449999999957e+02 -2.099395719999999983e+02 1.650920989999999904e+02 -1.433755219999999895e+02 -2.099354549999999904e+02 1.644790710000000047e+02 -1.428757359999999892e+02 -2.093260789999999929e+02 1.645518849999999986e+02 -1.429224199999999882e+02 -2.094116710000000126e+02 -8.794269999999999587e-01 -1.145083000000000073e+00 1.530631999999999993e+00 1.650377819999999929e+02 -1.433329880000000003e+02 -2.098681050000000141e+02 1.649834280000000035e+02 -1.432979840000000138e+02 -2.098012390000000096e+02 -8.757239999999999469e-01 -1.142457999999999974e+00 1.524745999999999935e+00 1.649746519999999919e+02 -1.432926860000000033e+02 -2.097946049999999900e+02 1.650338649999999916e+02 -1.433288269999999898e+02 -2.098644669999999905e+02 -7.683710000000000262e-01 -1.032504000000000088e+00 1.372214000000000045e+00 1.644486109999999996e+02 -1.428561599999999885e+02 -2.092864500000000021e+02 -8.742419999999999636e-01 -1.136501999999999901e+00 1.519203999999999999e+00 -8.784530000000000394e-01 -1.145159999999999956e+00 1.526464999999999961e+00 -1.658696820000000116e+02 1.447068299999999965e+02 2.098080150000000117e+02 -1.656762760000000014e+02 1.444558130000000062e+02 2.096695220000000006e+02 -1.659332699999999932e+02 1.447528920000000028e+02 2.098845090000000084e+02 -1.656751759999999933e+02 1.444571259999999882e+02 2.096685369999999864e+02 -8.779770000000000074e-01 -1.138978000000000046e+00 1.519851999999999981e+00 -8.800050000000000372e-01 -1.147828000000000070e+00 1.529906999999999906e+00 1.644407270000000096e+02 -1.428507189999999980e+02 -2.092835990000000095e+02 -7.706629999999999869e-01 -1.039711999999999970e+00 1.378292000000000073e+00 -8.780580000000000052e-01 -1.144325000000000037e+00 1.525852999999999904e+00 1.650506780000000049e+02 -1.433453279999999950e+02 -2.098820139999999981e+02 1.649828329999999994e+02 -1.433052209999999889e+02 -2.098099359999999933e+02 -8.804490000000000371e-01 -1.144503999999999966e+00 1.527301000000000020e+00 1.649696730000000002e+02 -1.432897639999999910e+02 -2.097918380000000127e+02 1.650422199999999862e+02 -1.433454879999999889e+02 -2.098761939999999981e+02 -1.658532409999999970e+02 1.447024199999999894e+02 2.097850139999999897e+02 -1.656710219999999936e+02 1.444518869999999993e+02 2.096665219999999863e+02 -1.659434200000000033e+02 1.447556170000000009e+02 2.098878990000000044e+02 -1.656845509999999990e+02 1.444649320000000046e+02 2.096814500000000123e+02 -1.656761089999999967e+02 1.444575140000000033e+02 2.096736760000000004e+02 -1.658621789999999976e+02 1.447088109999999972e+02 2.098073540000000037e+02 -8.787660000000000471e-01 -1.146649000000000029e+00 1.530335999999999919e+00 -8.733499999999999597e-01 -1.136376999999999970e+00 1.519916999999999963e+00 -1.656526880000000119e+02 1.444401630000000125e+02 2.096550650000000076e+02 -7.648270000000000346e-01 -1.030907000000000018e+00 1.367637999999999909e+00 -1.659264679999999998e+02 1.447413339999999948e+02 2.098834730000000093e+02 -8.776829999999999909e-01 -1.140932999999999975e+00 1.524014999999999898e+00 -8.769139999999999713e-01 -1.143577999999999983e+00 1.525330999999999992e+00 1.650590950000000134e+02 -1.433555220000000077e+02 -2.098861060000000123e+02 1.649992570000000001e+02 -1.433226860000000045e+02 -2.098207360000000108e+02 1.644572839999999871e+02 -1.428679419999999993e+02 -2.092911909999999978e+02 1.650603619999999978e+02 -1.433587390000000141e+02 -2.098974939999999947e+02 1.649991640000000075e+02 -1.433127800000000036e+02 -2.098145649999999875e+02