-1.412881319540000050e+03
-1.412881320660000029e+03
-1.412881322859999955e+03
-1.412881325930000003e+03
-1.412881330220000109e+03
