9.308486059768311449e+00 0.000000000000000000e+00 -1.049655717265117418e-17 0.000000000000000000e+00 1.612067466999999965e+01 0.000000000000000000e+00 3.491746451972927989e-01 0.000000000000000000e+00 2.164824914327464001e+01
9.308486059768311449e+00 0.000000000000000000e+00 -1.049655717265117418e-17 0.000000000000000000e+00 1.612067466999999965e+01 0.000000000000000000e+00 3.491746451972927989e-01 0.000000000000000000e+00 2.164824914327464001e+01
9.308486059768311449e+00 0.000000000000000000e+00 -1.049655717265117418e-17 0.000000000000000000e+00 1.612067466999999965e+01 0.000000000000000000e+00 3.491746451972927989e-01 0.000000000000000000e+00 2.164824914327464001e+01
9.308486059768311449e+00 0.000000000000000000e+00 -1.049655717265117418e-17 0.000000000000000000e+00 1.612067466999999965e+01 0.000000000000000000e+00 3.491746451972927989e-01 0.000000000000000000e+00 2.164824914327464001e+01
9.308486059768311449e+00 0.000000000000000000e+00 -1.049655717265117418e-17 0.000000000000000000e+00 1.612067466999999965e+01 0.000000000000000000e+00 3.491746451972927989e-01 0.000000000000000000e+00 2.164824914327464001e+01
