9.372179082716085574e+00 1.611993000000000009e+01 4.873715287539797103e+00 1.615100260446810543e+00 2.686030000000000140e+00 4.873716535633217717e+00 5.248771951203426434e-02 3.583029999999999937e+00 2.314134474765981775e+00 1.603899645759765180e+00 8.962499999999999911e-01 2.314144288356216883e+00 3.166522024120338674e+00 1.611993000000000009e+01 4.873716189250338005e+00 4.717923790394954686e+00 2.686030000000000140e+00 4.873716165414775148e+00 3.155311249460179379e+00 3.583029999999999937e+00 2.314134104547540538e+00 4.706733174407365716e+00 8.962499999999999911e-01 2.314143756864117218e+00 6.269345554068483928e+00 1.611993000000000009e+01 4.873715819031897212e+00 7.820757319042556333e+00 2.686030000000000140e+00 4.873715633922675927e+00 6.258144778107780581e+00 3.583029999999999937e+00 2.314133573055440429e+00 7.809556704355510526e+00 8.962499999999999911e-01 2.314143386645675982e+00 9.372179082716085574e+00 5.372819999999999929e+00 4.873715287539797103e+00 1.615100260446810543e+00 8.059590000000000032e+00 4.873716535633217717e+00 5.248771951203426434e-02 8.956590000000000273e+00 2.314134474765981775e+00 1.603899645759765180e+00 6.269809999999999661e+00 2.314144288356216883e+00 3.166522024120338674e+00 5.372819999999999929e+00 4.873716189250338005e+00 4.717923790394954686e+00 8.059590000000000032e+00 4.873716165414775148e+00 3.155311249460179379e+00 8.956590000000000273e+00 2.314134104547540538e+00 4.706733174407365716e+00 6.269809999999999661e+00 2.314143756864117218e+00 6.269345554068483928e+00 5.372819999999999929e+00 4.873715819031897212e+00 7.820757319042556333e+00 8.059590000000000032e+00 4.873715633922675927e+00 6.258144778107780581e+00 8.956590000000000273e+00 2.314133573055440429e+00 7.809556704355510526e+00 6.269809999999999661e+00 2.314143386645675982e+00 9.372179082716085574e+00 1.074638000000000027e+01 4.873715287539797103e+00 1.615100260446810543e+00 1.343314999999999948e+01 4.873716535633217717e+00 5.248771951203426434e-02 1.433014999999999972e+01 2.314134474765981775e+00 1.603899645759765180e+00 1.164335999999999949e+01 2.314144288356216883e+00 3.166522024120338674e+00 1.074638000000000027e+01 4.873716189250338005e+00 4.717923790394954686e+00 1.343314999999999948e+01 4.873716165414775148e+00 3.155311249460179379e+00 1.433014999999999972e+01 2.314134104547540538e+00 4.706733174407365716e+00 1.164335999999999949e+01 2.314143756864117218e+00 6.269345554068483928e+00 1.074638000000000027e+01 4.873715819031897212e+00 7.820757319042556333e+00 1.343314999999999948e+01 4.873715633922675927e+00 6.258144778107780581e+00 1.433014999999999972e+01 2.314133573055440429e+00 7.809556704355510526e+00 1.164335999999999949e+01 2.314143386645675982e+00 9.488570604451272317e+00 1.611993000000000009e+01 1.208979668217970094e+01 1.731491782181996619e+00 2.686030000000000140e+00 1.208979793027311977e+01 1.688792412472203686e-01 3.583029999999999937e+00 9.530215869405886053e+00 1.720291167494951257e+00 8.962499999999999911e-01 9.530225682996119829e+00 3.282913545855524973e+00 1.611993000000000009e+01 1.208979758389024184e+01 4.834315312130141429e+00 2.686030000000000140e+00 1.208979756005467898e+01 3.271702932469023661e+00 3.583029999999999937e+00 9.530225497886899433e+00 4.823124696142552459e+00 8.962499999999999911e-01 9.530225151504019721e+00 6.385737075803670670e+00 1.611993000000000009e+01 1.208979721367179927e+01 7.937148840777742187e+00 2.686030000000000140e+00 1.208979702856257887e+01 6.374536461116625752e+00 3.583029999999999937e+00 9.530224966394801100e+00 7.925948226090696380e+00 8.962499999999999911e-01 9.530224781285578928e+00 9.488570604451272317e+00 5.372819999999999929e+00 1.208979668217970094e+01 1.731491782181996619e+00 8.059590000000000032e+00 1.208979793027311977e+01 1.688792412472203686e-01 8.956590000000000273e+00 9.530215869405886053e+00 1.720291167494951257e+00 6.269809999999999661e+00 9.530225682996119829e+00 3.282913545855524973e+00 5.372819999999999929e+00 1.208979758389024184e+01 4.834315312130141429e+00 8.059590000000000032e+00 1.208979756005467898e+01 3.271702932469023661e+00 8.956590000000000273e+00 9.530225497886899433e+00 4.823124696142552459e+00 6.269809999999999661e+00 9.530225151504019721e+00 6.385737075803670670e+00 5.372819999999999929e+00 1.208979721367179927e+01 7.937148840777742187e+00 8.059590000000000032e+00 1.208979702856257887e+01 6.374536461116625752e+00 8.956590000000000273e+00 9.530224966394801100e+00 7.925948226090696380e+00 6.269809999999999661e+00 9.530224781285578928e+00 9.488570604451272317e+00 1.074638000000000027e+01 1.208979668217970094e+01 1.731491782181996619e+00 1.343314999999999948e+01 1.208979793027311977e+01 1.688792412472203686e-01 1.433014999999999972e+01 9.530215869405886053e+00 1.720291167494951257e+00 1.164335999999999949e+01 9.530225682996119829e+00 3.282913545855524973e+00 1.074638000000000027e+01 1.208979758389024184e+01 4.834315312130141429e+00 1.343314999999999948e+01 1.208979756005467898e+01 3.271702932469023661e+00 1.433014999999999972e+01 9.530225497886899433e+00 4.823124696142552459e+00 1.164335999999999949e+01 9.530225151504019721e+00 6.385737075803670670e+00 1.074638000000000027e+01 1.208979721367179927e+01 7.937148840777742187e+00 1.343314999999999948e+01 1.208979702856257887e+01 6.374536461116625752e+00 1.433014999999999972e+01 9.530224966394801100e+00 7.925948226090696380e+00 1.164335999999999949e+01 9.530224781285578928e+00 9.604962287460116599e+00 1.611993000000000009e+01 1.930588807551905717e+01 1.847883303917182918e+00 2.686030000000000140e+00 1.930587932491302183e+01 2.852709242560647618e-01 3.583029999999999937e+00 1.674630726274524406e+01 1.836682689230137333e+00 8.962499999999999911e-01 1.674630707763602189e+01 3.399305067590710827e+00 1.611993000000000009e+01 1.930587897853014567e+01 4.950706995138985711e+00 2.686030000000000140e+00 1.930588895339403877e+01 3.388094454204209960e+00 3.583029999999999937e+00 1.674630689252680327e+01 4.939516217877738313e+00 8.962499999999999911e-01 1.674630654614392355e+01 6.502128758812514953e+00 1.611993000000000009e+01 1.930588860701115905e+01 8.053540523786587357e+00 2.686030000000000140e+00 1.930588842190194043e+01 6.490927982851811606e+00 3.583029999999999937e+00 1.674630636103470493e+01 8.042339747825883123e+00 8.962499999999999911e-01 1.674630617592548276e+01 9.604962287460116599e+00 5.372819999999999929e+00 1.930588807551905717e+01 1.847883303917182918e+00 8.059590000000000032e+00 1.930587932491302183e+01 2.852709242560647618e-01 8.956590000000000273e+00 1.674630726274524406e+01 1.836682689230137333e+00 6.269809999999999661e+00 1.674630707763602189e+01 3.399305067590710827e+00 5.372819999999999929e+00 1.930587897853014567e+01 4.950706995138985711e+00 8.059590000000000032e+00 1.930588895339403877e+01 3.388094454204209960e+00 8.956590000000000273e+00 1.674630689252680327e+01 4.939516217877738313e+00 6.269809999999999661e+00 1.674630654614392355e+01 6.502128758812514953e+00 5.372819999999999929e+00 1.930588860701115905e+01 8.053540523786587357e+00 8.059590000000000032e+00 1.930588842190194043e+01 6.490927982851811606e+00 8.956590000000000273e+00 1.674630636103470493e+01 8.042339747825883123e+00 6.269809999999999661e+00 1.674630617592548276e+01 9.604962287460116599e+00 1.074638000000000027e+01 1.930588807551905717e+01 1.847883303917182918e+00 1.343314999999999948e+01 1.930587932491302183e+01 2.852709242560647618e-01 1.433014999999999972e+01 1.674630726274524406e+01 1.836682689230137333e+00 1.164335999999999949e+01 1.674630707763602189e+01 3.399305067590710827e+00 1.074638000000000027e+01 1.930587897853014567e+01 4.950706995138985711e+00 1.343314999999999948e+01 1.930588895339403877e+01 3.388094454204209960e+00 1.433014999999999972e+01 1.674630689252680327e+01 4.939516217877738313e+00 1.164335999999999949e+01 1.674630654614392355e+01 6.502128758812514953e+00 1.074638000000000027e+01 1.930588860701115905e+01 8.053540523786587357e+00 1.343314999999999948e+01 1.930588842190194043e+01 6.490927982851811606e+00 1.433014999999999972e+01 1.674630636103470493e+01 8.042339747825883123e+00 1.164335999999999949e+01 1.674630617592548276e+01 5.812769910606362112e-02 1.791130000000000111e+00 3.593899955910937027e+00 9.374794679483203552e+00 3.581859999999999822e+00 5.924429754915949253e+00 1.601284210266304520e+00 2.687199999999999811e+00 1.263439819679520015e+00 4.987228401857379811e-02 4.200000000000000174e-04 1.263430006089285129e+00 1.609539141532819517e+00 4.477929999999999744e+00 3.593879773402804734e+00 1.617726178460701769e+00 8.950799999999999867e-01 5.924450839134622449e+00 3.160951229054208778e+00 1.791130000000000111e+00 3.593899585692495791e+00 3.169137620887457540e+00 3.581859999999999822e+00 5.924430656626491043e+00 4.704117738913905278e+00 2.687199999999999811e+00 1.263439288187420573e+00 3.152695813966718497e+00 4.200000000000000174e-04 1.263429635870843670e+00 4.712362671480964771e+00 4.477929999999999744e+00 3.593879403184363497e+00 4.720559707108302305e+00 8.950799999999999867e-01 5.924450307642523228e+00 6.263784918975467519e+00 1.791130000000000111e+00 3.593909052899851631e+00 6.271971149535058743e+00 3.581859999999999822e+00 5.924430125134391822e+00 7.806941268862050087e+00 2.687199999999999811e+00 1.263438917968979336e+00 6.255529342614320143e+00 4.200000000000000174e-04 1.263429104378744006e+00 7.815196200128565529e+00 4.477929999999999744e+00 3.593878871692264276e+00 7.823383237056448003e+00 8.950799999999999867e-01 5.924449937424082435e+00 5.812769910606362112e-02 7.164690000000000225e+00 3.593899955910937027e+00 9.374794679483203552e+00 8.955420000000000158e+00 5.924429754915949253e+00 1.601284210266304520e+00 8.060760000000000147e+00 1.263439819679520015e+00 4.987228401857379811e-02 5.373980000000000423e+00 1.263430006089285129e+00 1.609539141532819517e+00 9.851490000000000080e+00 3.593879773402804734e+00 1.617726178460701769e+00 6.268640000000000434e+00 5.924450839134622449e+00 3.160951229054208778e+00 7.164690000000000225e+00 3.593899585692495791e+00 3.169137620887457540e+00 8.955420000000000158e+00 5.924430656626491043e+00 4.704117738913905278e+00 8.060760000000000147e+00 1.263439288187420573e+00 3.152695813966718497e+00 5.373980000000000423e+00 1.263429635870843670e+00 4.712362671480964771e+00 9.851490000000000080e+00 3.593879403184363497e+00 4.720559707108302305e+00 6.268640000000000434e+00 5.924450307642523228e+00 6.263784918975467519e+00 7.164690000000000225e+00 3.593909052899851631e+00 6.271971149535058743e+00 8.955420000000000158e+00 5.924430125134391822e+00 7.806941268862050087e+00 8.060760000000000147e+00 1.263438917968979336e+00 6.255529342614320143e+00 5.373980000000000423e+00 1.263429104378744006e+00 7.815196200128565529e+00 9.851490000000000080e+00 3.593878871692264276e+00 7.823383237056448003e+00 6.268640000000000434e+00 5.924449937424082435e+00 5.812769910606362112e-02 1.253824999999999967e+01 3.593899955910937027e+00 9.374794679483203552e+00 1.432897999999999961e+01 5.924429754915949253e+00 1.601284210266304520e+00 1.343431999999999960e+01 1.263439819679520015e+00 4.987228401857379811e-02 1.074754000000000076e+01 1.263430006089285129e+00 1.609539141532819517e+00 1.522504999999999953e+01 3.593879773402804734e+00 1.617726178460701769e+00 1.164218999999999937e+01 5.924450839134622449e+00 3.160951229054208778e+00 1.253824999999999967e+01 3.593899585692495791e+00 3.169137620887457540e+00 1.432897999999999961e+01 5.924430656626491043e+00 4.704117738913905278e+00 1.343431999999999960e+01 1.263439288187420573e+00 3.152695813966718497e+00 1.074754000000000076e+01 1.263429635870843670e+00 4.712362671480964771e+00 1.522504999999999953e+01 3.593879403184363497e+00 4.720559707108302305e+00 1.164218999999999937e+01 5.924450307642523228e+00 6.263784918975467519e+00 1.253824999999999967e+01 3.593909052899851631e+00 6.271971149535058743e+00 1.432897999999999961e+01 5.924430125134391822e+00 7.806941268862050087e+00 1.343431999999999960e+01 1.263438917968979336e+00 6.255529342614320143e+00 1.074754000000000076e+01 1.263429104378744006e+00 7.815196200128565529e+00 1.522504999999999953e+01 3.593878871692264276e+00 7.823383237056448003e+00 1.164218999999999937e+01 5.924449937424082435e+00 1.745193821149080282e-01 1.791130000000000111e+00 1.080999134925029637e+01 9.491186201218390295e+00 3.581859999999999822e+00 1.314051114955585220e+01 1.717675732001490596e+00 2.687199999999999811e+00 8.479521214319422739e+00 1.662639670274181913e-01 4.200000000000000174e-04 8.479521399428643136e+00 1.725930663268005594e+00 4.477929999999999744e+00 1.080996116804270812e+01 1.734117700195887846e+00 8.950799999999999867e-01 1.314053223377452717e+01 3.277342912063053504e+00 1.791130000000000111e+00 1.080999097903185557e+01 3.285529142622643839e+00 3.581859999999999822e+00 1.314051205126639310e+01 4.820509260649092020e+00 2.687199999999999811e+00 8.479520682827324407e+00 3.269087496975563223e+00 4.200000000000000174e-04 8.479521029210204119e+00 4.828754193216150625e+00 4.477929999999999744e+00 1.080996079782426733e+01 4.836951228843488160e+00 8.950799999999999867e-01 1.314053170228242706e+01 6.380176440710653374e+00 1.791130000000000111e+00 1.080999044753975369e+01 6.388362671270244597e+00 3.581859999999999822e+00 1.314051151977429477e+01 7.923332951870894370e+00 2.687199999999999811e+00 8.479530311308339563e+00 6.371921025623164425e+00 4.200000000000000174e-04 8.479520497718102234e+00 7.931587721863752272e+00 4.477929999999999744e+00 1.080996026633216722e+01 7.939774758791633857e+00 8.950799999999999867e-01 1.314053133206398627e+01 1.745193821149080282e-01 7.164690000000000225e+00 1.080999134925029637e+01 9.491186201218390295e+00 8.955420000000000158e+00 1.314051114955585220e+01 1.717675732001490596e+00 8.060760000000000147e+00 8.479521214319422739e+00 1.662639670274181913e-01 5.373980000000000423e+00 8.479521399428643136e+00 1.725930663268005594e+00 9.851490000000000080e+00 1.080996116804270812e+01 1.734117700195887846e+00 6.268640000000000434e+00 1.314053223377452717e+01 3.277342912063053504e+00 7.164690000000000225e+00 1.080999097903185557e+01 3.285529142622643839e+00 8.955420000000000158e+00 1.314051205126639310e+01 4.820509260649092020e+00 8.060760000000000147e+00 8.479520682827324407e+00 3.269087496975563223e+00 5.373980000000000423e+00 8.479521029210204119e+00 4.828754193216150625e+00 9.851490000000000080e+00 1.080996079782426733e+01 4.836951228843488160e+00 6.268640000000000434e+00 1.314053170228242706e+01 6.380176440710653374e+00 7.164690000000000225e+00 1.080999044753975369e+01 6.388362671270244597e+00 8.955420000000000158e+00 1.314051151977429477e+01 7.923332951870894370e+00 8.060760000000000147e+00 8.479530311308339563e+00 6.371921025623164425e+00 5.373980000000000423e+00 8.479520497718102234e+00 7.931587721863752272e+00 9.851490000000000080e+00 1.080996026633216722e+01 7.939774758791633857e+00 6.268640000000000434e+00 1.314053133206398627e+01 1.745193821149080282e-01 1.253824999999999967e+01 1.080999134925029637e+01 9.491186201218390295e+00 1.432897999999999961e+01 1.314051114955585220e+01 1.717675732001490596e+00 1.343431999999999960e+01 8.479521214319422739e+00 1.662639670274181913e-01 1.074754000000000076e+01 8.479521399428643136e+00 1.725930663268005594e+00 1.522504999999999953e+01 1.080996116804270812e+01 1.734117700195887846e+00 1.164218999999999937e+01 1.314053223377452717e+01 3.277342912063053504e+00 1.253824999999999967e+01 1.080999097903185557e+01 3.285529142622643839e+00 1.432897999999999961e+01 1.314051205126639310e+01 4.820509260649092020e+00 1.343431999999999960e+01 8.479520682827324407e+00 3.269087496975563223e+00 1.074754000000000076e+01 8.479521029210204119e+00 4.828754193216150625e+00 1.522504999999999953e+01 1.080996079782426733e+01 4.836951228843488160e+00 1.164218999999999937e+01 1.314053170228242706e+01 6.380176440710653374e+00 1.253824999999999967e+01 1.080999044753975369e+01 6.388362671270244597e+00 1.432897999999999961e+01 1.314051151977429477e+01 7.923332951870894370e+00 1.343431999999999960e+01 8.479530311308339563e+00 6.371921025623164425e+00 1.074754000000000076e+01 8.479520497718102234e+00 7.931587721863752272e+00 1.522504999999999953e+01 1.080996026633216722e+01 7.939774758791633857e+00 1.164218999999999937e+01 1.314053133206398627e+01 2.909109038500941047e-01 1.791130000000000111e+00 1.802607274389020020e+01 9.607577722953575261e+00 3.581859999999999822e+00 2.035659254419575603e+01 1.834067415010335100e+00 2.687199999999999811e+00 1.569561260765878252e+01 2.826554887626042678e-01 4.200000000000000174e-04 1.569560279406854697e+01 1.842322346276849876e+00 4.477929999999999744e+00 1.802605256138206613e+01 1.850509221931073922e+00 8.950799999999999867e-01 2.035661362841442923e+01 3.393734433798239358e+00 1.791130000000000111e+00 1.802607237367175941e+01 3.401920664357829693e+00 3.581859999999999822e+00 2.035659344590629516e+01 4.936900943657936303e+00 2.687199999999999811e+00 1.569561207616668241e+01 3.385479018710749077e+00 4.200000000000000174e-04 1.569560242385010618e+01 4.945145876224994907e+00 4.477929999999999744e+00 1.802605219116362534e+01 4.953342750578674902e+00 8.950799999999999867e-01 2.035661309692233090e+01 6.496567962445840116e+00 1.791130000000000111e+00 1.802607184217965752e+01 6.504754193005431340e+00 3.581859999999999822e+00 2.035659291441420038e+01 8.039724473606080224e+00 2.687199999999999811e+00 1.569561170594824162e+01 6.488312547358351168e+00 4.200000000000000174e-04 1.569560189235800607e+01 8.047979404872595666e+00 4.477929999999999744e+00 1.802605165967152701e+01 8.056166280526820600e+00 8.950799999999999867e-01 2.035661272670388655e+01 2.909109038500941047e-01 7.164690000000000225e+00 1.802607274389020020e+01 9.607577722953575261e+00 8.955420000000000158e+00 2.035659254419575603e+01 1.834067415010335100e+00 8.060760000000000147e+00 1.569561260765878252e+01 2.826554887626042678e-01 5.373980000000000423e+00 1.569560279406854697e+01 1.842322346276849876e+00 9.851490000000000080e+00 1.802605256138206613e+01 1.850509221931073922e+00 6.268640000000000434e+00 2.035661362841442923e+01 3.393734433798239358e+00 7.164690000000000225e+00 1.802607237367175941e+01 3.401920664357829693e+00 8.955420000000000158e+00 2.035659344590629516e+01 4.936900943657936303e+00 8.060760000000000147e+00 1.569561207616668241e+01 3.385479018710749077e+00 5.373980000000000423e+00 1.569560242385010618e+01 4.945145876224994907e+00 9.851490000000000080e+00 1.802605219116362534e+01 4.953342750578674902e+00 6.268640000000000434e+00 2.035661309692233090e+01 6.496567962445840116e+00 7.164690000000000225e+00 1.802607184217965752e+01 6.504754193005431340e+00 8.955420000000000158e+00 2.035659291441420038e+01 8.039724473606080224e+00 8.060760000000000147e+00 1.569561170594824162e+01 6.488312547358351168e+00 5.373980000000000423e+00 1.569560189235800607e+01 8.047979404872595666e+00 9.851490000000000080e+00 1.802605165967152701e+01 8.056166280526820600e+00 6.268640000000000434e+00 2.035661272670388655e+01 2.909109038500941047e-01 1.253824999999999967e+01 1.802607274389020020e+01 9.607577722953575261e+00 1.432897999999999961e+01 2.035659254419575603e+01 1.834067415010335100e+00 1.343431999999999960e+01 1.569561260765878252e+01 2.826554887626042678e-01 1.074754000000000076e+01 1.569560279406854697e+01 1.842322346276849876e+00 1.522504999999999953e+01 1.802605256138206613e+01 1.850509221931073922e+00 1.164218999999999937e+01 2.035661362841442923e+01 3.393734433798239358e+00 1.253824999999999967e+01 1.802607237367175941e+01 3.401920664357829693e+00 1.432897999999999961e+01 2.035659344590629516e+01 4.936900943657936303e+00 1.343431999999999960e+01 1.569561207616668241e+01 3.385479018710749077e+00 1.074754000000000076e+01 1.569560242385010618e+01 4.945145876224994907e+00 1.522504999999999953e+01 1.802605219116362534e+01 4.953342750578674902e+00 1.164218999999999937e+01 2.035661309692233090e+01 6.496567962445840116e+00 1.253824999999999967e+01 1.802607184217965752e+01 6.504754193005431340e+00 1.432897999999999961e+01 2.035659291441420038e+01 8.039724473606080224e+00 1.343431999999999960e+01 1.569561170594824162e+01 6.488312547358351168e+00 1.074754000000000076e+01 1.569560189235800607e+01 8.047979404872595666e+00 1.522504999999999953e+01 1.802605165967152701e+01 8.056166280526820600e+00 1.164218999999999937e+01 2.035661272670388655e+01