-2.825570630539999911e+03
-2.825532867519999854e+03
-2.825419492699999864e+03
-2.825231311879999794e+03
-2.824969631330000084e+03
