-5.276882711378591334e-04 2.063999999999999863e-03 2.689860049984670997e-03 -8.054751160218875678e-04 2.376000000000000074e-03 1.775221067210933871e-03 1.163331712136606716e-03 -3.005999999999999991e-03 -1.973018075826299227e-03 1.298346703615390913e-03 -9.879999999999999460e-04 -1.291106826413310161e-03 -1.144027816691499952e-03 2.005999999999999971e-03 1.867693056858133784e-03 -7.832845557724863860e-04 1.902999999999999961e-03 1.538832448542822853e-03 1.747110747741163110e-03 -2.462999999999999912e-03 -1.681394967022119833e-03 8.355355367018283677e-04 -1.920999999999999965e-03 -2.205761856345418714e-03 -6.529141387091765133e-04 2.184000000000000177e-03 2.180813409595982761e-03 -6.718312179967596536e-04 2.033999999999999784e-03 1.752062731332697069e-03 1.643833636875088617e-03 -2.665999999999999967e-03 -2.193796019295782447e-03 1.469436901361214362e-03 -1.716999999999999993e-03 -2.341002604209989780e-03 -7.138418296052528736e-04 1.900999999999999912e-03 1.875756338735344803e-03 -3.437606367205159677e-04 2.067999999999999960e-03 2.559876876851991181e-03 8.195373234785594332e-04 -2.186000000000000009e-03 -2.887592522400901206e-03 1.798700586878973452e-03 -2.384999999999999967e-03 -2.203294850618327683e-03 -9.285397294213851987e-04 1.850000000000000082e-03 1.834213447471711713e-03 -6.295780809769906247e-04 2.201999999999999964e-03 3.069552644922925958e-03 1.535944152853559478e-03 -1.894999999999999983e-03 -2.868143748021525444e-03 1.155832593969399790e-03 -2.116999999999999958e-03 -2.189925344553546836e-03 -7.976533970664623392e-04 1.755000000000000050e-03 2.136141862833162378e-03 -1.188360688771911318e-03 1.958000000000000105e-03 2.033429584072571350e-03 1.418492076649105829e-03 -1.288999999999999998e-03 -1.965132114765749932e-03 1.427087561598673875e-03 -2.093999999999999941e-03 -2.362322393647902068e-03 -9.663896677967315479e-04 1.965000000000000167e-03 1.781817052891717041e-03 -7.922992185545121597e-04 2.409000000000000117e-03 2.220066428798451747e-03 1.161090035022195252e-03 -2.188999999999999974e-03 -2.049991934270024765e-03 1.576390516919916589e-03 -2.645999999999999915e-03 -2.840792484178483301e-03 -7.050848036392034970e-04 1.708000000000000100e-03 2.108645399226021303e-03 -7.638837089816714714e-04 2.461000000000000080e-03 1.873563097190058700e-03 1.520075546744944096e-03 -2.268000000000000051e-03 -2.177798046694886126e-03 1.072375507726598155e-03 -2.896000000000000137e-03 -2.651639449553449927e-03 -7.078586036185142332e-04 2.272000000000000148e-03 2.184700024553313299e-03 -7.337101828543743766e-04 2.199000000000000000e-03 1.946085909608258032e-03 1.819423690517032142e-03 -2.485999999999999929e-03 -2.220631314375572703e-03 1.634092921800927873e-03 -2.370000000000000145e-03 -2.301652954491642793e-03 -5.824389937706956266e-04 2.111000000000000029e-03 3.201809616222579379e-03 -7.308554519519078457e-04 2.201999999999999964e-03 2.557119337917605414e-03 1.168040662336301220e-03 -2.910999999999999959e-03 -2.239128627642676499e-03 1.357322796095424607e-03 -1.446999999999999936e-03 -1.541090466909616390e-03 -1.195714446760103803e-03 1.871000000000000050e-03 2.321585656789165297e-03 -8.930442260421573870e-04 1.786000000000000044e-03 2.112677213947451206e-03 1.776203660150459974e-03 -2.464000000000000044e-03 -1.861887632932801660e-03 8.116675432554772444e-04 -2.374999999999999941e-03 -2.507416159959415230e-03 -5.115613598177881985e-04 2.080999999999999951e-03 2.635592907704332240e-03 -6.050815480364154456e-04 1.722999999999999922e-03 2.418072852547221464e-03 1.609257366612294564e-03 -2.641000000000000118e-03 -2.477275262865244465e-03 1.427893822946846910e-03 -2.158000000000000196e-03 -2.560361152335787361e-03 -6.347067704613457281e-04 2.158999999999999895e-03 2.317537554286991461e-03 -5.611032106460503779e-04 2.151999999999999833e-03 2.850419826447096391e-03 9.565196129661088275e-04 -2.144000000000000072e-03 -2.641769715552657032e-03 1.709066986881858105e-03 -2.295999999999999864e-03 -2.427878504857804501e-03 -9.498593049727438366e-04 1.994000000000000113e-03 2.372627299167886193e-03 -5.084324102245902591e-04 2.245000000000000034e-03 3.387640253071924883e-03 1.475065004469885196e-03 -1.838000000000000007e-03 -2.798152825095202162e-03 1.174733305268781461e-03 -2.113999999999999994e-03 -2.320247112161178023e-03 -8.531460052632520129e-04 2.027999999999999855e-03 2.540089347582749190e-03 -1.101178287965888080e-03 2.134000000000000046e-03 2.478081390534321495e-03 1.338405823751118075e-03 -1.155999999999999910e-03 -1.721808889206084868e-03 1.484112349756675333e-03 -2.184000000000000177e-03 -2.485258041592405907e-03 -9.002206632136885815e-04 1.866999999999999953e-03 2.225807664090297729e-03 -7.171314379328998798e-04 2.315999999999999916e-03 2.539895765721162605e-03 1.071214551273463747e-03 -2.098000000000000038e-03 -2.227565573701477744e-03 1.630867421899309362e-03 -2.454000000000000018e-03 -2.563635007599073586e-03 -6.777495067470756763e-04 1.873000000000000099e-03 2.439247549164310670e-03 -7.775592072240966471e-04 2.376000000000000074e-03 2.203826599181758338e-03 1.550007082177348857e-03 -2.067999999999999960e-03 -2.306297475435478868e-03 1.108596715832311499e-03 -2.720000000000000195e-03 -2.390189599518375944e-03 -7.662863389245428650e-04 2.266999999999999918e-03 2.530687307190997246e-03 -8.014593484588289829e-04 2.197999999999999867e-03 2.148204811643422089e-03 1.919249384680786182e-03 -2.390000000000000197e-03 -2.294250814405963089e-03 1.610386415899420264e-03 -2.083000000000000216e-03 -2.097244046716218845e-03 -6.756849632985915738e-04 2.210999999999999858e-03 3.125303478123713646e-03 -6.955053889591519042e-04 2.560000000000000209e-03 2.144495570974390766e-03 1.208438537361894612e-03 -2.978000000000000178e-03 -2.462809229603187423e-03 1.369304974397443381e-03 -9.039999999999999642e-04 -1.852324185203664281e-03 -1.296588553381838611e-03 1.982999999999999954e-03 2.020173290398423298e-03 -8.169897343939611783e-04 2.279999999999999909e-03 1.805410693968240859e-03 1.677555049805668982e-03 -2.324000000000000111e-03 -2.211342138808805417e-03 8.916569784868529601e-04 -1.933000000000000039e-03 -2.880754733175960175e-03 -3.368744653980876628e-04 2.200999999999999832e-03 2.490756831680433509e-03 -7.084875708858451564e-04 1.979999999999999989e-03 2.145705096675746756e-03 1.644462390255865998e-03 -2.602000000000000146e-03 -2.650865603351849464e-03 1.332486759662046289e-03 -1.631999999999999987e-03 -2.832857927133893786e-03 -7.691732710870291837e-04 2.379000000000000038e-03 2.041670266973901089e-03 -5.138836470255253065e-04 2.047000000000000208e-03 2.615627763524417445e-03 8.360030698959542437e-04 -2.170000000000000054e-03 -2.548814011873863812e-03 1.864321100608915894e-03 -2.598000000000000049e-03 -2.165348201519645688e-03 -8.500820998497534082e-04 2.165999999999999957e-03 2.047975933333942740e-03 -5.142543358172196400e-04 1.990000000000000015e-03 3.150703330701446619e-03 1.510963665259018379e-03 -1.961000000000000069e-03 -2.556700373971700687e-03 1.158332282201255834e-03 -2.289999999999999935e-03 -2.158961630972267096e-03 -8.170217485032466032e-04 2.272999999999999847e-03 2.361483530002421449e-03 -1.161799532175394499e-03 1.845999999999999985e-03 2.254029912631382200e-03 1.401010627014314227e-03 -1.430000000000000064e-03 -1.622805663963790583e-03 1.318214682563043907e-03 -2.220999999999999884e-03 -2.229549293170082335e-03 -7.891061337994665454e-04 1.631999999999999987e-03 2.108000358064499556e-03 -7.536428584160777006e-04 2.004999999999999838e-03 2.446472448640786296e-03 1.239789361194708513e-03 -2.105999999999999799e-03 -2.317295911157747808e-03 1.583438042108092350e-03 -2.559000000000000077e-03 -2.713889637919142134e-03 -7.625127224712917968e-04 1.691000000000000012e-03 2.330600426514467787e-03 -7.606904638117111071e-04 2.056000000000000102e-03 2.133545410406332329e-03 1.466888777560232740e-03 -2.138000000000000143e-03 -2.498982055611414198e-03 9.811938944964521646e-04 -2.834999999999999847e-03 -2.476146106634841831e-03 -8.410508551929728399e-04 2.031999999999999952e-03 2.421878910882864500e-03 -7.810426380357024176e-04 2.076000000000000154e-03 2.173878882911886579e-03 1.809215228362192089e-03 -2.249000000000000131e-03 -2.481500605976622378e-03 1.708470381289461937e-03 -2.337999999999999801e-03 -2.216841436877397317e-03 -5.778434431123681721e-04 4.330000000000000081e-04 1.750546758944771355e-03 1.308421788905074663e-03 -2.699999999999999899e-05 -1.114555092502467724e-02 -1.351642193573115557e-03 5.860000000000000408e-04 1.063618171058358999e-02 -1.450612923461379192e-03 1.230000000000000082e-04 1.125885882966328085e-02 -4.856131768018689628e-04 -6.930000000000000396e-04 2.508157858372633831e-03 2.018910222586481860e-03 -5.540000000000000219e-04 -1.068694958878050466e-02 -2.495151448126905515e-04 8.819999999999999715e-04 1.830262055692873091e-03 1.407054164940759865e-03 -8.670000000000000406e-04 -1.104512854506106874e-02 -1.715594720084641844e-03 5.540000000000000219e-04 1.095209239170386560e-02 -1.330547759483702557e-03 6.999999999999999895e-06 1.157196321545021604e-02 -7.149865784851008876e-04 -9.000000000000000567e-05 2.486854276508008478e-03 1.180164484538469933e-03 -2.820000000000000241e-04 -1.066441989933977069e-02 -1.104936124618959188e-03 7.870000000000000476e-04 1.873063309264274895e-03 1.929937737645078975e-03 -6.600000000000000506e-05 -1.111857083121807650e-02 -2.064371876595827784e-03 8.130000000000000291e-04 1.109273553976295942e-02 -1.629412109016739650e-03 8.899999999999999491e-05 1.158278451750655719e-02 -5.576360408793694682e-04 -1.150000000000000035e-04 2.569327352812868920e-03 1.092901580582397768e-03 3.179999999999999776e-04 -1.080403073557089158e-02 -2.724314632602157322e-04 -9.999999999999999547e-07 1.959648462818242096e-03 1.719416424541369160e-03 -6.319999999999999663e-04 -1.183126836645240557e-02 -1.954951068159299296e-03 1.260999999999999968e-03 1.006383705755924986e-02 -1.503767785480082057e-03 1.577999999999999976e-03 1.013356972874575671e-02 -9.627130294250077014e-04 1.459999999999999981e-04 1.079666440608081880e-03 1.528715483626581642e-03 -4.710000000000000102e-04 -1.168717412252082144e-02 -1.919097982206640544e-04 7.700000000000000139e-05 1.681313661797495746e-03 1.305486501380920955e-03 -2.059999999999999928e-04 -1.157555951108680745e-02 -1.116737666862740183e-03 9.759999999999999796e-04 9.698271339955898129e-03 -1.746768303308251667e-03 9.349999999999999587e-04 1.044552925870956619e-02 -6.929093910412476845e-04 -2.840000000000000185e-04 1.127321416370170686e-03 1.483398628344048155e-03 -8.720000000000000537e-04 -1.207849417392031430e-02 -5.117068269400791396e-04 4.279999999999999950e-04 1.882497310293673688e-03 1.618913300805339657e-03 -5.900000000000000296e-04 -1.198566759611143125e-02 -1.115592597153062127e-03 1.028000000000000051e-03 9.831270170083684576e-03 -1.357415950954811261e-03 1.219999999999999947e-03 9.906179886116214459e-03 -2.163262557842968213e-04 3.179999999999999776e-04 1.035623460075304949e-03 1.665246233606738121e-03 -1.551000000000000078e-03 -1.140733961015707662e-02 -9.111067688273570987e-04 -1.640000000000000019e-04 1.240855130866199731e-03 1.317194968972772509e-03 -3.750000000000000078e-04 -1.084965393059671851e-02 -1.513879135874298667e-03 -8.120000000000000048e-04 1.068480448871033349e-02 -1.475964955393828252e-03 -4.229999999999999819e-04 1.012111972315560098e-02 -7.627867807471081299e-04 2.640000000000000202e-04 2.561634893406447913e-03 1.698612924696538259e-03 1.890000000000000133e-04 -1.126085867649771581e-02 -5.548791168688242811e-04 -2.049999999999999956e-04 7.560470657722798008e-04 1.480996559853379416e-03 -3.199999999999999855e-05 -1.011920062009358939e-02 -1.595513615891870282e-03 -6.639999999999999852e-04 1.083214019949444926e-02 -1.934469741329580047e-03 4.200000000000000174e-04 1.034154286457684632e-02 -3.817717952825138762e-04 -5.300000000000000078e-05 2.621497910799618861e-03 1.432083061368607038e-03 -3.440000000000000132e-04 -1.129156424528245453e-02 -3.061855319597418237e-04 -9.120000000000000502e-04 1.045073882564543895e-03 1.886185611149426280e-03 8.399999999999999535e-05 -1.054479060201258221e-02 -1.888136728320724154e-03 -6.870000000000000022e-04 1.110589504250631375e-02 -1.420730278107025729e-03 -1.489999999999999897e-04 9.949206575243571896e-03 -7.202200853128710924e-05 -1.579999999999999916e-04 2.045427542174769759e-03 1.353367447415349629e-03 -2.799999999999999958e-05 -1.139730852229053557e-02 -6.713637382742720277e-04 -4.310000000000000137e-04 1.284994447820843582e-03 1.269410813869136694e-03 -1.190000000000000085e-03 -1.095989763572781210e-02 -1.242253987433894436e-03 -6.290000000000000018e-04 8.799178656596568296e-03 -1.064970453436629542e-03 5.400000000000000069e-04 9.125361961769351896e-03 -5.663127508461037385e-04 -1.752000000000000085e-03 1.597340874149634667e-03 1.792987702889187185e-03 -6.689999999999999983e-04 -1.136239389817516286e-02 -1.185324760359004190e-04 3.000000000000000076e-05 1.146060666860528347e-03 1.199049015000384390e-03 -1.423000000000000003e-03 -1.091975766487638874e-02 -1.545214554208401009e-03 -1.066000000000000107e-03 8.866073312434458870e-03 -9.915767365278453128e-04 7.900000000000000121e-04 9.211189476695006220e-03 -7.609325614498800485e-04 -1.199999999999999895e-03 1.684490913280723258e-03 1.217610944674080761e-03 -5.069999999999999637e-04 -1.131910895730798769e-02 -1.207535993063492798e-03 -7.799999999999999859e-05 1.154624538738097898e-03 1.800293319402265172e-03 -9.650000000000000374e-04 -1.109547700480315556e-02 -1.972465360713770988e-03 1.689999999999999879e-04 9.039986360652558020e-03 -1.929067581757430662e-03 7.640000000000000306e-04 9.498346080503308406e-03 -5.630874380952194825e-04 -1.126999999999999964e-03 1.425266479315135879e-03 9.899954258662095087e-04 -4.100000000000000047e-05 -1.123142671510454077e-02 -2.054889867770409739e-04 -2.840000000000000185e-04 9.634392956036956718e-04 1.256218735564294071e-03 -5.000000000000000409e-06 -1.152975899524431684e-02 -1.622011091835465040e-03 5.839999999999999922e-04 8.693289366975122043e-03 -1.601094540014916419e-03 -6.700000000000000226e-05 8.501927150589708507e-03 -1.036768128747695859e-03 1.002999999999999985e-03 5.807958739634794384e-04 1.489285330758185295e-03 -1.191000000000000001e-03 -1.121747713185048193e-02 -1.774766613499252426e-04 -3.260000000000000094e-04 5.919392153558369896e-04 1.145716992579935527e-03 3.669999999999999760e-04 -1.149797275926994072e-02 -1.721659598861654010e-03 7.500000000000000156e-04 8.281842924473243814e-03 -2.109512159664635698e-03 -3.869999999999999742e-04 8.790164074022001686e-03 -6.642681785542584863e-04 6.470000000000000057e-04 6.087920720247660695e-04 1.226561311879343892e-03 -1.580999999999999940e-03 -1.150827790541229627e-02 -7.003277387002136744e-04 9.999999999999999547e-07 1.225453817329337719e-03 1.949886513836791976e-03 -2.329999999999999986e-04 -1.167996556429672789e-02 -1.195873020100657975e-03 3.299999999999999982e-04 8.574401420495505327e-03 -1.282587620354363545e-03 -6.279999999999999775e-04 8.406778098422352033e-03 -2.459837596767043208e-04 1.178999999999999927e-03 8.710803579322136956e-04 1.291585407167624095e-03 -1.498999999999999898e-03 -1.082523774039127751e-02 -9.023339897969471579e-04 8.989999999999999511e-04 6.066311654185955419e-04 1.609704869010993369e-03 4.470000000000000232e-04 -1.187450463112808309e-02 -1.453178137117679689e-03 1.226000000000000093e-03 8.867589204614927806e-03 -1.586209275448763291e-03 7.919999999999999523e-04 8.742718406450038574e-03 -4.271696616956605335e-04 6.229999999999999644e-04 1.357065613788373606e-03 1.711127118920179914e-03 1.028000000000000051e-03 -1.197315313452959780e-02 -5.413647853414123605e-04 9.470000000000000336e-04 6.638171202916105795e-04 1.424019592340661873e-03 1.299999999999999920e-05 -1.129543470613813758e-02 -1.358142029982765085e-03 1.332000000000000068e-03 9.055080906673021457e-03 -1.911070163359387172e-03 9.079999999999999530e-04 8.939983211993046686e-03 -3.844977746165401025e-04 2.970000000000000092e-04 1.398382802137858403e-03 1.184469822819333128e-03 1.013999999999999927e-03 -1.194765622366287909e-02 -3.730641406392605367e-04 3.110000000000000243e-04 5.570889937605033202e-04 1.314243447139512794e-03 7.919999999999999523e-04 -1.152869464257124353e-02 -1.796310769060354860e-03 1.018000000000000025e-03 9.234170705643134081e-03 -1.353981624107809898e-03 1.008999999999999914e-03 8.258910264773336452e-03 -3.017828680317023488e-04 2.349999999999999930e-04 1.070006121740693780e-03 1.436098374422739793e-03 3.840000000000000097e-04 -1.197271758870893828e-02 -6.030986573782045430e-04 5.450000000000000200e-04 7.428230000939707155e-04 1.380928286806710993e-03 6.999999999999999929e-04 -1.161078076903948250e-02 -1.245301872424840793e-03 -3.350000000000000113e-04 9.044259684824135573e-03 -1.217950688789256296e-03 1.456999999999999962e-03 8.817789128782666311e-03 -2.742696086632530447e-04 -6.710000000000000469e-04 2.713776184906136618e-03 1.672422537099173311e-03 -2.320000000000000014e-04 -1.183051038025844347e-02 -3.086207641999203139e-04 1.178000000000000011e-03 8.940935207821704188e-04 1.422745423496894670e-03 6.080000000000000335e-04 -1.162245668780566635e-02 -1.587676571645191140e-03 -7.609999999999999577e-04 9.333818945311128656e-03 -9.118291850480853217e-04 9.749999999999999552e-04 8.884860918286484679e-03 -9.671793472701497880e-04 -7.200000000000000182e-05 3.034992769384152553e-03 1.533892154171136168e-03 8.799999999999999771e-05 -1.186228038192371423e-02 -9.485215356835121096e-04 8.220000000000000310e-04 5.953745848997857998e-04 1.693903760610290538e-03 1.111000000000000008e-03 -1.149081263661497210e-02 -1.870994488084725153e-03 -2.820000000000000241e-04 9.502410043013118437e-03 -1.849287829017650557e-03 1.289999999999999914e-03 9.050001134002534989e-03 -5.474437862978160253e-04 -8.700000000000000051e-05 2.643172582493226452e-03 1.370961868818401739e-03 1.479999999999999925e-04 -1.154661169149833258e-02 -3.734175256890827246e-04 -1.169999999999999979e-04 3.821519246518096952e-03 1.411957017831870671e-03 -7.739999999999999485e-04 -1.043112776164664343e-02 -2.042842618552872559e-03 1.900000000000000105e-05 1.062932806135101146e-02 -1.186534794040923881e-03 -3.879999999999999985e-04 1.026947127083620813e-02 -1.199132860127829527e-03 8.700000000000000051e-05 3.473790636143988218e-03 1.707095731971856444e-03 3.910000000000000172e-04 -1.116898353306528500e-02 -1.529624771018285611e-04 -3.589999999999999984e-04 3.475918940452851595e-03 1.265056852868414209e-03 -2.990000000000000036e-04 -1.023773349716677536e-02 -1.033506256798267771e-03 3.100000000000000135e-05 1.039401952168451763e-02 -1.974464485681087355e-03 -7.159999999999999481e-04 1.046620408719341373e-02 -6.265460292578625863e-04 -3.530000000000000152e-04 3.505560450658525701e-03 1.532956980839607700e-03 -6.899999999999999667e-05 -1.142420832683364168e-02 -5.596190652166760501e-04 1.430000000000000064e-04 3.934536885307597827e-03 1.943597509558962332e-03 -1.030000000000000100e-03 -1.051971324327979039e-02 -1.040215000360757798e-03 1.840000000000000001e-04 1.053614620024914336e-02 -1.340482564400013532e-03 -4.499999999999999877e-04 1.014993849708162484e-02 -1.401254949392346475e-04 2.099999999999999884e-05 3.341694457257879652e-03 1.255332078009348176e-03 -4.899999999999999842e-05 -1.077864701035898681e-02 -6.795716584633797576e-04 -1.569999999999999944e-04 2.884334821239263342e-03 1.657037912380343028e-03 -1.221000000000000080e-03 -1.073812019661422000e-02 -1.072808219550426198e-03 1.188000000000000037e-03 8.949465488176657282e-03 -1.601916394012535159e-03 1.730000000000000038e-04 9.939127319166098790e-03 -5.134969378112785084e-04 4.979999999999999618e-04 1.833519810326149748e-03 2.030134815731825682e-03 -7.749999999999999728e-04 -1.011505623464118570e-02 -5.224308568208828503e-04 -1.150000000000000035e-04 2.767785396276488657e-03 1.429503164080712495e-03 -1.793000000000000106e-03 -1.033539828472436126e-02 -1.598481746335704079e-03 1.590999999999999966e-03 9.035954465723671988e-03 -1.916407653053305840e-03 1.033999999999999980e-03 1.015922785979912583e-02 -3.357783125022799765e-04 3.000000000000000076e-06 1.380594772137400637e-03 1.262218570161606794e-03 -9.859999999999998974e-04 -1.010367028763009545e-02 -6.143866905540973800e-04 -8.459999999999999638e-04 2.647252725840505000e-03 1.669229933588872814e-03 -9.690000000000000262e-04 -1.060229915767381577e-02 -2.060050598099869446e-03 1.199999999999999895e-03 9.376442637443497749e-03 -1.100852666030103936e-03 2.900000000000000017e-04 9.629006148491879233e-03 -2.738347312380726780e-04 2.069999999999999900e-04 1.438603329610971216e-03 1.491043641406652673e-03 -1.374999999999999920e-03 -1.011636228391514167e-02