-2.122611726290166700e+01 8.141278284376445740e+00 -1.670093924684732656e+01 8.141278284376445740e+00 -1.979922702274769009e+01 7.087336218575921443e-01 -1.670093924684732656e+01 7.087336218575921443e-01 3.802031138988312620e+01
-2.101191461729783683e+01 8.069168496544978808e+00 -1.669790104020216148e+01 8.069168496544978808e+00 -1.963073642255595175e+01 6.860900120328319307e-01 -1.669790104020216148e+01 6.860900120328319307e-01 3.818015382157617665e+01
-2.086040642945057755e+01 7.994283596803027692e+00 -1.668844852369182163e+01 7.994283596803027692e+00 -1.953130466523461806e+01 6.661476180993077811e-01 -1.668844852369181808e+01 6.661476180993077811e-01 3.822347429525027707e+01
-1.985461696436560430e+01 7.886918413353597224e+00 -1.669934828915220137e+01 7.886918413353597224e+00 -1.862210424480165116e+01 6.842642120444191178e-01 -1.669934828915220493e+01 6.842642120444191178e-01 3.914087019832255265e+01
-1.886805468616640979e+01 7.770257083127814823e+00 -1.671884386471525730e+01 7.770257083127814823e+00 -1.774925805374820698e+01 7.207000877208238343e-01 -1.671884386471525374e+01 7.207000877208238343e-01 4.000920491987559302e+01
