-1.820031805947293282e-04 3.992599995710393451e-02 -2.916400003887652595e-02 -2.154998238194707431e-03 -2.210000014662853035e-02 1.637300003397045706e-02 1.849999831684773579e-04 1.130000124922831095e-04 -1.501000001134046146e-03 2.154999851750930093e-03 1.888000161995310533e-03 -9.890000137811674752e-04 -1.634700089308001314e-02 1.293399877907581985e-02 1.542100007731360932e-02 -4.030001704687953025e-03 2.490599972759457992e-02 3.242099999736700044e-02 2.118999921066704040e-02 1.174900162056493301e-02 1.797999987129846045e-02 -8.279999789709961179e-04 -2.020000615810230269e-04 1.042000004772213398e-03 -1.336000060869254030e-03 8.229998992066936284e-04 2.490000065524515418e-04 1.649996251289059259e-04 5.232000016247738937e-03 3.772999993863102031e-03 1.326999919930374212e-03 1.036000100050698224e-03 -3.110000083596842799e-04 -1.600000597892608221e-04 8.519999887402106764e-04 8.420000000321341011e-04 -7.130001787711429465e-04 2.361999946051646353e-03 -2.399999842368928034e-05 5.130000215390510343e-04 -2.039999600959205002e-04 1.106999997372084881e-03 -7.449999562491295630e-04 -5.290000556673017792e-04 6.780000046406979824e-04 9.479998428908244538e-04 2.045000071254975821e-03 -4.430000072755253772e-04 -2.923991702941383837e-03 -1.083400002024535874e-01 1.871000012435833706e-02 2.769999363499121414e-03 9.040001066864067434e-04 -1.029250000161929801e-01 2.894000130861181137e-03 -3.069997616469352110e-04 1.950099998433219364e-02 -2.743999914248214465e-03 3.019998121214773328e-04 1.967300001484482280e-02 5.219997345527883741e-04 4.772000056753557783e-03 1.729399999235199659e-02 -2.268000440373975184e-03 7.091999845842023031e-03 1.739100000543499988e-02 2.982999989534263190e-03 1.618000245855285213e-03 2.027299998191808839e-02 -1.235999836395189648e-03 -6.890000733026821174e-04 2.019900000751076799e-02 -1.889998637352835974e-04 -3.239999940698572991e-04 2.024700000136689035e-02 5.049999708889403235e-04 1.796000057505560930e-03 1.933399999541849171e-02 1.910001702652121475e-04 -7.739999653363513693e-04 2.024099999971883806e-02 -4.950000326543920999e-04 1.812999981466762497e-03 1.892500000092136453e-02 -5.958000019235689185e-03 1.889999571780749763e-03 2.241100003099942214e-02 -1.329996369376892690e-04 -3.336999990029335204e-03 2.005200000406739264e-02 8.890001453245262092e-04 -4.669999128580819910e-04 1.992899999555932181e-02 5.200999760718949191e-03 4.790000415608931805e-03 2.228099996650661357e-02 -1.981999946917151548e-02 -7.229001501869450168e-03 -2.880999883375586195e-03 1.301700053677105201e-02 -6.757999010877138377e-03 4.648999934898448601e-03 2.309998251516589304e-04 8.399999973262368058e-04 -2.016700000211414309e-02 6.565999821075432785e-03 3.460004689453515252e-04 -2.767400003658898253e-02 1.948999108941187755e-03 1.134000014135713719e-02 -6.053000022085457815e-03 -2.021001124190552941e-03 1.510499985044550138e-02 3.297999996067598871e-03 -1.931999872604038288e-03 -3.204000166914265212e-03 -2.081999998613524167e-02 2.008999861921140825e-03 2.950001309917416655e-04 -2.097300001138405548e-02 7.869999682895819021e-04 -1.010999960053974743e-03 -1.959700000333426326e-02 -1.140000053877492916e-03 -7.560001063148958506e-04 -2.011899999295221550e-02 2.368999765878621478e-03 1.610000158835936694e-03 -2.035500001468473069e-02 -2.020000211738434606e-03 1.351999827414152380e-03 -1.983499999020037208e-02 9.839997623328187743e-04 1.592000053200028466e-03 -2.124400000702174676e-02 4.699994424237508033e-05 -7.480000167725205139e-04 -2.034999999951227212e-02 -9.720000661115525296e-04 -6.400000942353086279e-04 -2.074599999399542177e-02 -4.699981700476482801e-05 -3.738000021598323827e-03 -1.806399999600676737e-02
-1.810031780050932787e-04 3.989299995719654268e-02 -2.914700003884908644e-02 -2.152998240249412096e-03 -2.207400014649325143e-02 1.635700003393344981e-02 1.829999832606672098e-04 1.120000123440192377e-04 -1.498000001122007634e-03 2.150999851988861199e-03 1.885000161694787291e-03 -9.870000137560913482e-04 -1.633100089232535773e-02 1.292299878027192150e-02 1.540700007723628043e-02 -4.023001703086453648e-03 2.488299972809901450e-02 3.239599999735133518e-02 2.116599921155639524e-02 1.173600161873282477e-02 1.796299987144392429e-02 -8.249999790576661909e-04 -2.010000613561300088e-04 1.040000004754654912e-03 -1.333000060788103918e-03 8.219998994345833598e-04 2.500000065368908797e-04 1.639996256953090543e-04 5.224000016165118200e-03 3.765999993876612863e-03 1.323999920151745129e-03 1.033000099822808720e-03 -3.120000083401280617e-04 -1.590000597301901024e-04 8.509999888128442829e-04 8.390000000276131220e-04 -7.130001783985115502e-04 2.356999946050647790e-03 -2.499999841869489684e-05 5.130000214523809969e-04 -2.029999600979182810e-04 1.104999997371086066e-03 -7.429999564003900289e-04 -5.270000555160414329e-04 6.780000046276605597e-04 9.459998431988653244e-04 2.041000071104713976e-03 -4.420000072604901792e-04 -2.921991708469560446e-03 -1.082680002023172910e-01 1.869500012427537453e-02 2.767999363793322010e-03 9.050001066020709091e-04 -1.028580000161829489e-01 2.892000130750783937e-03 -3.069997618181732348e-04 1.948099998434323077e-02 -2.741999914423202261e-03 3.029998122547580049e-04 1.965500001483278317e-02 5.199997346102112504e-04 4.770000056585316228e-03 1.727699999236503511e-02 -2.263000440002991328e-03 7.085999846205191799e-03 1.737600000541339451e-02 2.975999989650756749e-03 1.615000245305895721e-03 2.025299998195972603e-02 -1.232999836656847349e-03 -6.870000730957688062e-04 2.017900000749220726e-02 -1.889998637479710125e-04 -3.249999940858392766e-04 2.023100000136788743e-02 5.029999709943942235e-04 1.793000057332325191e-03 1.931199999543252790e-02 1.920001700736649272e-04 -7.729999652816975809e-04 2.021999999971231879e-02 -4.930000326670794936e-04 1.811999981602040871e-03 1.890900000091132183e-02 -5.955000019119196901e-03 1.886999571987662844e-03 2.239100003098586089e-02 -1.359996372860168556e-04 -3.333999990278201271e-03 2.003000000408095352e-02 8.900001450628684590e-04 -4.649999128024293027e-04 1.990899999555180433e-02 5.197999760684183200e-03 4.789000415362064042e-03 2.226099996652416979e-02 -1.980499946963081709e-02 -7.223001500735994930e-03 -2.881999883464377282e-03 1.300500053634873893e-02 -6.752999011792692671e-03 4.640999934959692819e-03 2.299998255590572508e-04 8.359999972695853019e-04 -2.014800000210462821e-02 6.560999821337090872e-03 3.440004685871777537e-04 -2.765400003655938549e-02 1.943999109433608300e-03 1.133400014098598016e-02 -6.046000022051864833e-03 -2.016001123316108964e-03 1.509299985081765869e-02 3.291999996051985563e-03 -1.924999872930863165e-03 -3.198000166361879455e-03 -2.079699998617987045e-02 2.003999861863718212e-03 2.970001306305712564e-04 -2.095600001135845478e-02 7.849999681620484530e-04 -1.007999960187255534e-03 -1.957900000332621696e-02 -1.139000054086176548e-03 -7.520001062222846132e-04 -2.010199999296172907e-02 2.367999765826718419e-03 1.612000158778286027e-03 -2.033700001468120855e-02 -2.017000211882527712e-03 1.354999827656026357e-03 -1.981999999021992823e-02 9.839997629781476168e-04 1.585000053221004681e-03 -2.122300000701475564e-02 4.699994427162207091e-05 -7.470000167535419643e-04 -2.033099999951326967e-02 -9.730000663257558835e-04 -6.360000942949567805e-04 -2.072999999399389309e-02 -4.799981787920878863e-05 -3.726000021667960540e-03 -1.805799999601323536e-02
-1.820031756809869822e-04 3.986299995713090544e-02 -2.913700003881359787e-02 -2.150998240930084363e-03 -2.206500014634199189e-02 1.635700003391341723e-02 1.839999833473371631e-04 1.110000124216472487e-04 -1.496000001126528709e-03 2.151999851924270204e-03 1.886000161772415432e-03 -9.850000137626099567e-04 -1.632200089159113396e-02 1.291299878094859938e-02 1.540300007719658942e-02 -4.022001701715717525e-03 2.486399972816265985e-02 3.238399999736479851e-02 2.115499921214487877e-02 1.172800161789789609e-02 1.795999987151263369e-02 -8.259999788953659204e-04 -2.030000614297625095e-04 1.042000004762172602e-03 -1.334000060869253981e-03 8.229998993579541429e-04 2.490000065414118701e-04 1.639996255495684027e-04 5.226000016166116799e-03 3.766999993874615028e-03 1.324999919930374163e-03 1.036000099899437709e-03 -3.110000083486445539e-04 -1.590000598003004967e-04 8.519999888138431827e-04 8.400000000266142708e-04 -7.120001785497720405e-04 2.358999946126278096e-03 -2.499999842621250737e-05 5.140000214744604732e-04 -2.029999600182924948e-04 1.108999997365566273e-03 -7.459999563783106498e-04 -5.270000557389367029e-04 6.820000046442201104e-04 9.459998430476048098e-04 2.043000071104714242e-03 -4.420000072624879301e-04 -2.920991709559854835e-03 -1.082530002022336763e-01 1.870300012425487463e-02 2.766999363709947164e-03 9.080001065524113783e-04 -1.028320000161804249e-01 2.892000130534932729e-03 -3.039997618161755194e-04 1.948299998434023517e-02 -2.740999914628013557e-03 3.059998123343837828e-04 1.965900001482426621e-02 5.199997344589507358e-04 4.772000056585316494e-03 1.727699999236303671e-02 -2.263000440056542242e-03 7.086999846209187000e-03 1.738000000541239584e-02 2.976999989720867466e-03 1.614000245380527295e-03 2.025199998195520434e-02 -1.234999836651327508e-03 -6.870000732460304453e-04 2.018000000750324804e-02 -1.879998638826719409e-04 -3.229999940072123986e-04 2.023400000136036866e-02 5.029999709408434182e-04 1.794000057336320609e-03 1.931599999543152923e-02 1.910001701437753243e-04 -7.739999653583266295e-04 2.021899999971884035e-02 -4.940000326615596278e-04 1.811999981527409598e-03 1.891000000091684272e-02 -5.953000019335047410e-03 1.889999572140921074e-03 2.239300003097182204e-02 -1.379996372584175351e-04 -3.333999990424467517e-03 2.003500000409199483e-02 8.880001450739081906e-04 -4.649999129516920664e-04 1.991099999556284611e-02 5.198999760306030962e-03 4.794000415437694312e-03 2.226099996651365737e-02 -1.980299946976551984e-02 -7.221001500581737849e-03 -2.878999883477415065e-03 1.300400053642437014e-02 -6.753999011868322411e-03 4.640999934966211042e-03 2.299998256457272069e-04 8.349999972715830285e-04 -2.014600000210363048e-02 6.558999821062169028e-03 3.480004684409116053e-04 -2.764900003655234098e-02 1.935999109418696639e-03 1.133500014039192511e-02 -6.035000022008705188e-03 -2.009001123364139926e-03 1.509399985135206727e-02 3.296999996012348229e-03 -1.919999873113595237e-03 -3.195000165975736984e-03 -2.078899998621046644e-02 1.997999861692026195e-03 3.000001301867784320e-04 -2.094600001132833345e-02 7.839999678705671798e-04 -1.003999960260887944e-03 -1.957700000332469534e-02 -1.138000054220877260e-03 -7.500001061436577894e-04 -2.009899999296924436e-02 2.366999765692017876e-03 1.614000158705652553e-03 -2.033400001467768753e-02 -2.018000212006188909e-03 1.356999827585390417e-03 -1.981499999021640521e-02 9.839997635036872980e-04 1.579000053233990241e-03 -2.121000000700876478e-02 4.699994413692112503e-05 -7.450000167505452893e-04 -2.032799999951526854e-02 -9.730000663627472353e-04 -6.350000942879647364e-04 -2.072299999399489223e-02 -4.799981892699268468e-05 -3.712000021665962882e-03 -1.805599999602721523e-02
-1.810031701826343166e-04 3.979299995724349531e-02 -2.910000003874919916e-02 -2.146998244508433254e-03 -2.201900014605745123e-02 1.633900003384539112e-02 1.839999834229674204e-04 1.100000124216472650e-04 -1.496000001125529725e-03 2.147999852151161529e-03 1.883000161469894221e-03 -9.850000137375338784e-04 -1.629300089031810589e-02 1.289499878312589526e-02 1.538700007705449263e-02 -4.012001698797031807e-03 2.482299972888600201e-02 3.235099999735054771e-02 2.111499921370938587e-02 1.170600161485470594e-02 1.794199987175540412e-02 -8.249999790466264107e-04 -2.010000613541322579e-04 1.042000004754654961e-03 -1.332000060863734259e-03 8.229998995102135329e-04 2.500000065303721684e-04 1.619996263003511180e-04 5.216000016013857057e-03 3.765999993895643647e-03 1.322999920006004372e-03 1.035000099748177062e-03 -3.110000083366059524e-04 -1.580000595678898647e-04 8.489999888904723509e-04 8.410000000240910314e-04 -7.130001782417311456e-04 2.354999946051646292e-03 -2.399999841669714533e-05 5.120000214634207528e-04 -2.029999601715507603e-04 1.106999997376605788e-03 -7.409999564705004559e-04 -5.260000553637820186e-04 6.790000046156219283e-04 9.449998432043851902e-04 2.041000071030082703e-03 -4.410000072549703190e-04 -2.915991715136062503e-03 -1.081800002018655088e-01 1.869300012415435822e-02 2.767999363753529622e-03 9.110001066769867146e-04 -1.027830000161889384e-01 2.889000130571924441e-03 -3.049997620500583895e-04 1.947599998435779398e-02 -2.741999914839992562e-03 3.079998122477658898e-04 1.964800001482778710e-02 5.179997342745711573e-04 4.774000056428062341e-03 1.727099999237207903e-02 -2.261000439938401236e-03 7.084999846354454213e-03 1.737400000540335540e-02 2.974999989833488918e-03 1.612000245222274496e-03 2.024499998196823899e-02 -1.233999836782156316e-03 -6.860000731803890268e-04 2.017000000749673283e-02 -1.889998639378705138e-04 -3.229999940928314646e-04 2.022400000136588896e-02 5.029999706642739607e-04 1.797000057327330586e-03 1.930699999542853304e-02 1.920001699483559843e-04 -7.719999652906874357e-04 2.021099999971132100e-02 -4.940000328624988279e-04 1.813999981518419659e-03 1.890100000091484919e-02 -5.948000019720366127e-03 1.893999572504089218e-03 2.237800003094022813e-02 -1.399996375239472880e-04 -3.330999990582720303e-03 2.002800000410003695e-02 8.900001450352692254e-04 -4.649999128074236801e-04 1.990399999555180627e-02 5.194999760228752837e-03 4.794000415121188810e-03 2.224699996653573680e-02 -1.979499947031700818e-02 -7.214001499980691665e-03 -2.882999883528566086e-03 1.300200053631562006e-02 -6.752999012025575828e-03 4.634999934976251693e-03 2.299998259002172666e-04 8.319999972765773329e-04 -2.014100000210063135e-02 6.555999820977146363e-03 3.500004682260073876e-04 -2.763700003653777812e-02 1.923999108787702826e-03 1.134400013949335081e-02 -6.026000021951456384e-03 -1.997001123579991277e-03 1.509699985226162569e-02 3.298999995943113078e-03 -1.906999873700430080e-03 -3.186000164975563188e-03 -2.077199998629121469e-02 1.985999861169781763e-03 3.080001292941985085e-04 -2.093100001127008725e-02 7.809999678390957536e-04 -1.002999960479787796e-03 -1.956900000330913381e-02 -1.136000054398089622e-03 -7.470001059834073228e-04 -2.008999999298328315e-02 2.367999765514805163e-03 1.617000158790272545e-03 -2.032500001468619949e-02 -2.017000212194440534e-03 1.359999827668012876e-03 -1.980799999022492264e-02 9.809997644018584109e-04 1.568000053019085816e-03 -2.119800000698121925e-02 4.799994415900054711e-05 -7.450000166709195301e-04 -2.032399999952078790e-02 -9.700000665675585906e-04 -6.320000940570784983e-04 -2.071899999401445244e-02 -4.899982102972804646e-05 -3.685000021752580547e-03 -1.806699999604866741e-02
-1.730031621978751365e-04 3.969099995789747426e-02 -2.905100003869147060e-02 -2.140998249626986909e-03 -2.195300014562664298e-02 1.631600003374634664e-02 1.829999838397577505e-04 1.050000123530091636e-04 -1.489000001115015721e-03 2.145999852621502477e-03 1.877000161321630512e-03 -9.820000137205010977e-04 -1.625100088851732030e-02 1.286899878627239743e-02 1.535700007684863075e-02 -3.996001694590408521e-03 2.476299973003615387e-02 3.229099999732216314e-02 2.105199921573707236e-02 1.167700161006003309e-02 1.791199987213212136e-02 -8.229999790742257041e-04 -2.010000612078661206e-04 1.037000004743615167e-03 -1.331000060409952583e-03 8.169998995858439696e-04 2.500000065308455852e-04 1.619996276009773642e-04 5.198000016002869532e-03 3.754999993913623463e-03 1.327999920865536448e-03 1.024000100131322892e-03 -3.060000083532175971e-04 -1.550000599570808854e-04 8.539999891153653849e-04 8.390000000025371520e-04 -7.170001780148403626e-04 2.351999945749125298e-03 -2.399999839162109407e-05 5.140000207661889241e-04 -1.939999600232869244e-04 1.103999997356576272e-03 -7.389999567951008883e-04 -5.220000552165170171e-04 6.750000046005867659e-04 9.439998437928676621e-04 2.033000070951456167e-03 -4.440000072414594439e-04 -2.908991721651304346e-03 -1.080940002013380946e-01 1.869100012402981348e-02 2.763999363660185789e-03 9.180001064533769087e-04 -1.027040000161738575e-01 2.882000130295354814e-03 -3.019997625884601592e-04 1.946699998439344048e-02 -2.737999915483673320e-03 3.159998125432947141e-04 1.964100001479771734e-02 5.219997344793824660e-04 4.771000056726587904e-03 1.726699999235299654e-02 -2.262000439123027992e-03 7.073999846275828146e-03 1.737100000541986350e-02 2.969999990254151324e-03 1.606000244838130028e-03 2.023899998200183459e-02 -1.233999836691614159e-03 -6.880000731913767055e-04 2.015900000749872717e-02 -1.919998640206683419e-04 -3.229999943347053684e-04 2.020900000138245098e-02 5.049999706035555435e-04 1.797000057467603362e-03 1.929599999541749267e-02 1.930001698120072855e-04 -7.709999652260447842e-04 2.019999999970480131e-02 -4.930000331390683695e-04 1.816999981585060110e-03 1.889200000090632964e-02 -5.946000020364047151e-03 1.901999572648357473e-03 2.237100003092119468e-02 -1.429996380163678371e-04 -3.324999990816602732e-03 2.002100000411060482e-02 8.900001451423708359e-04 -4.669999128154146781e-04 1.989599999555380361e-02 5.196999759767804983e-03 4.799000415257466748e-03 2.223199996651969990e-02 -1.978399947117101890e-02 -7.203001499152754394e-03 -2.886999883600271846e-03 1.299000053620135049e-02 -6.751999012940131453e-03 4.627999935041491111e-03 2.309998261878264201e-04 8.289999973631952557e-04 -2.013000000210315305e-02 6.552999820606163206e-03 3.560004680140996768e-04 -2.762200003652721253e-02 1.911999108156709664e-03 1.135300013859477826e-02 -6.017000021894208447e-03 -1.985001123823441210e-03 1.509999985316619504e-02 3.295999995873878131e-03 -1.893999874486556462e-03 -3.174000163970394726e-03 -2.074999998637496249e-02 1.971999860728686996e-03 3.150001282513569217e-04 -2.091500001119980107e-02 7.779999680841938933e-04 -1.004999960689697625e-03 -1.955200000329057608e-02 -1.128000054385402094e-03 -7.460001053623832330e-04 -2.007399999302844282e-02 2.365999765343113244e-03 1.620000158649000750e-03 -2.031500001467815772e-02 -2.020000212447282950e-03 1.363999827450111972e-03 -1.979899999021236118e-02 9.769997654418978959e-04 1.556000052740537940e-03 -2.117400000694714957e-02 4.899994378801683046e-05 -7.390000165803059951e-04 -2.030899999953230534e-02 -9.690000667983214577e-04 -6.280000939684628712e-04 -2.070599999402396307e-02 -4.599982370438634701e-05 -3.650000021530684820e-03 -1.807199999610019023e-02
-1.560031516328719118e-04 3.955699995926110352e-02 -2.897300003865145926e-02 -2.142998257735407360e-03 -2.184900014582185496e-02 1.627200003365350187e-02 2.009999840462167633e-04 1.030000137243425681e-04 -1.479000001212375315e-03 2.128999853184032880e-03 1.870000160041909330e-03 -9.760000136196713425e-04 -1.619200088570186755e-02 1.282899879069662567e-02 1.531900007656291328e-02 -3.974001686971030851e-03 2.465699973162809727e-02 3.221899999730660352e-02 2.096499921956167245e-02 1.162300160343325388e-02 1.786499987266628592e-02 -8.409999772094208480e-04 -2.250000625602208051e-04 1.046000004866945660e-03 -1.336000062058906356e-03 8.379998991967049131e-04 2.390000065374684379e-04 1.679996287094796077e-04 5.184000016465641590e-03 3.763999993894488489e-03 1.319999918574549409e-03 1.054000099522285194e-03 -3.100000083390250542e-04 -1.590000598538513291e-04 8.529999888178387089e-04 8.440000000256153842e-04 -7.170001781291096337e-04 2.352999945742133194e-03 -3.099999839261997366e-05 5.240000210852695413e-04 -1.979999592639876871e-04 1.106999997305373271e-03 -7.409999570921020759e-04 -5.180000553667786674e-04 6.760000046076308517e-04 9.419998440307981655e-04 2.030000070802193222e-03 -4.420000072274230972e-04 -2.887991730516604148e-03 -1.079770001997528567e-01 1.868800012379702793e-02 2.750999364586450505e-03 9.140001055830567194e-04 -1.025910000160980967e-01 2.890000129413743384e-03 -2.909997619924079839e-04 1.945799998433829156e-02 -2.745999915976094288e-03 3.219998119312605651e-04 1.963400001483588467e-02 5.199997345218935509e-04 4.770000056569334221e-03 1.726099999236503299e-02 -2.261000439182098663e-03 7.074999846354453753e-03 1.737400000541334394e-02 2.970999989675060862e-03 1.613000244904770576e-03 2.022999998198932170e-02 -1.237999836898073238e-03 -6.860000735038864405e-04 2.014900000751881221e-02 -2.029998636110455902e-04 -3.289999951746291852e-04 2.020100000144916044e-02 5.119999697495431065e-04 1.808000057993019603e-03 1.929199999536786517e-02 1.980001695039663794e-04 -7.669999648488923846e-04 2.019899999967320753e-02 -4.890000329027855992e-04 1.812999981875594536e-03 1.888000000088824876e-02 -5.931000021083358657e-03 1.910999573775819206e-03 2.236400003082940693e-02 -1.499996382117871547e-04 -3.322999991354005922e-03 2.001300000414724459e-02 8.940001449690309666e-04 -4.649999125168891565e-04 1.989199999552972511e-02 5.187999760456220993e-03 4.788000414550822210e-03 2.220599996658036840e-02 -1.976699947204159369e-02 -7.192001497874031882e-03 -2.893999883705096910e-03 1.297700053551903258e-02 -6.743999013937309293e-03 4.613999935105258556e-03 2.279998262043860175e-04 8.289999971393011103e-04 -2.012700000208659384e-02 6.546999820539348668e-03 3.590004675892855945e-04 -2.759300003649708954e-02 1.892999107516323779e-03 1.136300013717877859e-02 -5.996000021799319755e-03 -1.967001122855159979e-03 1.508799985453852625e-02 3.306999995786507641e-03 -1.864999874979553435e-03 -3.165000161743154738e-03 -2.071599998654402239e-02 1.945999859999407314e-03 3.280001263309185490e-04 -2.086900001106926916e-02 7.759999675194384624e-04 -9.959999608199817528e-04 -1.953100000328852545e-02 -1.127000054896606538e-03 -7.380001052697721152e-04 -2.005699999304194972e-02 2.363999765149341764e-03 1.623000158503733453e-03 -2.030900001467011648e-02 -2.018000212607935426e-03 1.366999827613358956e-03 -1.978699999022639350e-02 9.709997673856285167e-04 1.533000052323714880e-03 -2.113700000689105671e-02 6.099994392436545901e-05 -7.400000156617553022e-04 -2.029799999959754422e-02 -9.660000674348349047e-04 -6.190000937335809854e-04 -2.069799999404951449e-02 -4.299982736775785500e-05 -3.602000021309787435e-03 -1.807799999616469325e-02
