-1.412880926710000040e+03
-1.412880928219999987e+03
-1.412880930990000024e+03
-1.412880935370000088e+03
-1.412880940869999904e+03
