-1.412881221560000085e+03
-1.412881222879999996e+03
-1.412881225330000007e+03
-1.412881229220000023e+03
-1.412881234420000055e+03
