-1.000601504328168042e-06 -2.480001123184272477e-04 -1.123689999997467548e-01 -4.000049125230150747e-06 7.580000011818079000e-04 1.485999999264931001e-03 3.999398484632106164e-06 -2.480001119422737123e-04 -1.123709999997743597e-01 -4.956797199831055026e-11 7.640000014863267174e-04 1.487999999236858236e-03 -4.419999764825311675e-04 -2.830000330460032110e-04 3.830000027224581493e-04 4.390000235229861219e-04 -2.829999664147473597e-04 3.839999978594655153e-04 -4.399999765471217586e-04 -2.820000328927449755e-04 3.850000027104195422e-04 4.440000236797664855e-04 -2.849999660355971923e-04 3.849999978338639484e-04 2.999973515898527714e-06 2.479999988284624260e-04 -1.400000000264280987e-03 -2.582262506031763317e-11 2.909999993097752932e-04 -6.910000002906730755e-04 -1.000026699952523203e-06 2.509999985279391123e-04 -1.398000000245198113e-03 -2.000025968365714186e-06 2.929999991595135943e-04 -6.900000002816310219e-04 -4.709999795966357907e-04 -2.400000352143088784e-04 4.080000028395822987e-04 4.690000207815128112e-04 -2.449999641218666827e-04 4.079999976559125076e-04 -4.689999792129646741e-04 -2.450000350620494473e-04 4.090000028335369743e-04 4.710000206412920170e-04 -2.429999639686084229e-04 4.099999976428750251e-04 2.381195264398064295e-09 -2.871199996205258537e-02 3.799000002867974207e-02 3.000319401572265901e-06 -2.893999981581554717e-03 1.821200000287418949e-02 4.002381433194869975e-06 -2.871499996174806460e-02 3.799200002866065518e-02 -2.999680889909036897e-06 -2.889999982033338629e-03 1.821400000290331403e-02 -1.199998311874151747e-04 -6.639999876147589320e-04 2.148500000132563814e-02 1.220001688346635324e-04 -6.639999693082410635e-04 2.148899999998983221e-02 -1.199998311708556128e-04 -6.639999876117623056e-04 2.148800000132563767e-02 1.200001691316647176e-04 -6.679999694605004423e-04 2.148800000000486779e-02 1.000012561872725672e-06 1.433000021961018970e-03 2.190999999856308930e-02 9.998859609407207714e-07 2.875000018786583785e-03 1.873199999712270997e-02 -9.999870875752571495e-07 1.428000021804763956e-03 2.190499999857912355e-02 9.998859775002870998e-07 2.875000018789580520e-03 1.873499999712271297e-02 -2.349900087047428893e-02 1.431199826111840927e-02 3.839700011541516411e-02 2.349999912929867998e-02 1.431500181566488887e-02 3.839699985598447884e-02 -2.350300087085244183e-02 1.431699826081588890e-02 3.839700011543224767e-02 2.350099912929316109e-02 1.431500181573952014e-02 3.839599985597896142e-02 2.461499886440815521e-02 1.489900186005053626e-02 -1.590000150753503264e-03 -2.460900113569328834e-02 1.490099813723572142e-02 -1.580999879046134744e-03 2.461299886387322000e-02 1.490600185989827617e-02 -1.591000150749455637e-03 -2.461600113616915081e-02 1.490699813670231556e-02 -1.584999879013489080e-03 -1.000337854943207682e-06 2.886999978297677578e-03 -2.165100000287823595e-02 9.997966115355865898e-07 1.340999981623373352e-03 -1.847300000134501421e-02 -1.000337698162836933e-06 2.884999978298676514e-03 -2.165000000287623655e-02 -5.000203447535087982e-06 1.341999981172588676e-03 -1.847000000131289454e-02 1.429999426852812802e-04 -6.210000080556537161e-04 -1.889200000016903747e-02 -1.460000571099065371e-04 -6.240000299167936405e-04 -1.889599999857080256e-02 1.449999430468729990e-04 -6.260000079073898410e-04 -1.889500000017508077e-02 -1.460000571468978076e-04 -6.230000299098014879e-04 -1.888899999857180170e-02 -9.999057507757524249e-07 -2.869000022285649477e-03 -2.223499999712870434e-02 -1.997748556681178716e-06 -2.991600000216191463e-02 -2.012999970106571588e-03 -9.999057342161860965e-07 -2.869000022282652742e-03 -2.223199999712870134e-02 6.002251642610295528e-06 -2.991900000156186637e-02 -2.017999970147733770e-03
-6.012669743884977369e-10 -2.480001121998452913e-04 -1.123259999997522768e-01 -4.925993111231974566e-11 7.600000014873256040e-04 1.488999999240853871e-03 -6.012614545330921321e-10 -2.480001121988464159e-04 -1.123249999997522758e-01 -4.925993111231974566e-11 7.600000014873256040e-04 1.488999999240853871e-03 -4.399999764604518296e-04 -2.830000328907471946e-04 3.870000027114184121e-04 4.400000235395457081e-04 -2.829999663361204760e-04 3.869999978539455897e-04 -4.399999764604518296e-04 -2.830000328907471946e-04 3.870000027114184121e-04 4.400000235395457081e-04 -2.829999663361204760e-04 3.869999978539455897e-04 -2.653213244468585829e-11 2.489999986065660016e-04 -1.395000000248720288e-03 -2.589825531796394282e-11 2.919999993097752091e-04 -6.910000002916719510e-04 -2.646202204244510818e-11 2.479999986055671560e-04 -1.396000000247721437e-03 -2.582262506031763317e-11 2.909999993097752932e-04 -6.910000002906730755e-04 -4.709999793476656212e-04 -2.430000352103133681e-04 4.120000028425789139e-04 4.710000206523316888e-04 -2.429999639666106720e-04 4.119999976428750195e-04 -4.709999793531854571e-04 -2.430000352113122436e-04 4.110000028425789438e-04 4.700000206468118286e-04 -2.429999640432398047e-04 4.109999976483949395e-04 1.002379810192617574e-06 -2.869499996199493044e-02 3.797200002865724205e-02 3.189903018537945164e-10 -2.888999981814438945e-03 1.820600000288575410e-02 2.379810192620776697e-09 -2.869499996207056092e-02 3.797200002866275848e-02 1.000318903631882387e-06 -2.887999981740806306e-03 1.820400000287923648e-02 -1.179998312426137425e-04 -6.639999874734871721e-04 2.147500000131459877e-02 1.180001686762354634e-04 -6.629999696257452002e-04 2.147400000001091144e-02 -1.179998312260541806e-04 -6.639999874704905457e-04 2.147800000131459830e-02 1.180001686817553128e-04 -6.629999696247463247e-04 2.147500000001091244e-02 1.298640727944487263e-11 1.426000021866409909e-03 2.189099999857560194e-02 -1.137641375226625941e-10 2.871000018705959379e-03 1.872699999713222513e-02 1.000012980887421202e-06 1.426000021941041399e-03 2.188999999857008105e-02 -1.137806970888792663e-10 2.871000018702962644e-03 1.872399999713222560e-02 -2.348500087010882420e-02 1.430599826216125137e-02 3.838100011534387873e-02 2.348699912982092630e-02 1.430700181466671231e-02 3.838199985606422643e-02 -2.348600087010330531e-02 1.430599826208662009e-02 3.838200011534939615e-02 2.348599912989655578e-02 1.430600181459108257e-02 3.838199985607074899e-02 2.459499886471619087e-02 1.489500185853892891e-02 -1.589000150639110695e-03 -2.459600113528366896e-02 1.489499813821092492e-02 -1.588999879111899606e-03 2.459499886479182135e-02 1.489400185853892791e-02 -1.589000150638111711e-03 -2.459500113520251760e-02 1.489399813828755186e-02 -1.587999879116420597e-03 -3.374050338021476424e-10 2.881999978386293529e-03 -2.163800000287876418e-02 -2.032410760326701848e-10 1.339999981560728668e-03 -1.846000000133849600e-02 -1.000337491703767621e-06 2.882999978308665653e-03 -2.164000000287424202e-02 -2.032355561772646059e-10 1.339999981561727652e-03 -1.845900000133849500e-02 1.459999428917403079e-04 -6.230000078187740214e-04 -1.888200000018359914e-02 -1.460000571137786568e-04 -6.230000299038081267e-04 -1.888299999857180264e-02 1.449999428917403378e-04 -6.230000078944042787e-04 -1.888200000017807925e-02 -1.460000571082588209e-04 -6.230000299028092513e-04 -1.888199999857180164e-02 9.403502090057387980e-11 -2.865000022194037332e-03 -2.221899999713821891e-02 2.249967704932540783e-09 -2.989700000201764296e-02 -2.019999970136590172e-03 9.402950104516831380e-11 -2.865000022195036099e-03 -2.221999999713821991e-02 2.249821964272653840e-09 -2.989500000201664870e-02 -2.018999970138587573e-03
-1.000600889976499758e-06 -2.470001121935676280e-04 -1.122439999997477539e-01 -4.934108122537161162e-11 7.610000014863266445e-04 1.487999999239854971e-03 -6.009010162136992992e-10 -2.470001121199351217e-04 -1.122459999997532792e-01 9.999506644386270423e-07 7.610000015629557772e-04 1.488999999234335214e-03 -4.409999764604517996e-04 -2.830000329663774519e-04 3.870000027169383022e-04 4.420000235285059765e-04 -2.829999661868577124e-04 3.849999978429059235e-04 -4.399999764659716654e-04 -2.830000328917460701e-04 3.860000027114184420e-04 4.400000234583956150e-04 -2.819999663371193814e-04 3.859999978529467441e-04 -2.631076152715248565e-11 2.459999986055671616e-04 -1.396000000245723686e-03 9.999742419654835223e-07 2.899999993834077752e-04 -6.930000002951940304e-04 -1.000026450982328648e-06 2.479999985319346497e-04 -1.394000000242201498e-03 9.999741773749365780e-07 2.909999993854055504e-04 -6.910000002961928572e-04 -4.709999792830750357e-04 -2.440000352123111163e-04 4.100000028435777950e-04 4.700000206468118286e-04 -2.429999640432398047e-04 4.109999976483949395e-04 -4.689999793587052985e-04 -2.430000350610506045e-04 4.100000028315391935e-04 4.710000207114023842e-04 -2.439999639696072684e-04 4.089999976438739304e-04 2.377694769826022655e-09 -2.866899996209753415e-02 3.794500002863678695e-02 1.000318713732379193e-06 -2.885999981747798711e-03 1.819700000287723801e-02 2.377381209084626349e-09 -2.866499996209952855e-02 3.794300002863279508e-02 3.187358118038277736e-10 -2.885999981819433683e-03 1.820100000288275496e-02 -1.179998313734425484e-04 -6.629999874834759024e-04 2.146500000131359998e-02 1.180001685564463563e-04 -6.619999696337362880e-04 2.146600000000991118e-02 -1.179998313734425484e-04 -6.629999874834759024e-04 2.146500000131359998e-02 1.200001685564463507e-04 -6.619999694824757735e-04 2.146599999999887140e-02 1.306038981905967609e-11 1.424000021852425604e-03 2.187699999857760022e-02 9.998864020348377901e-07 2.868000018770601716e-03 1.871599999712970225e-02 1.300683898303559977e-11 1.425000021856421238e-03 2.188099999857660155e-02 -1.135979651591848169e-10 2.868000018694971676e-03 1.871599999713522214e-02 -2.346200086915652475e-02 1.429099826386778446e-02 3.834800011523190749e-02 2.346499913070863169e-02 1.429300181297188214e-02 3.835099985619964957e-02 -2.346300086913996955e-02 1.429099826379515159e-02 3.835100011523742691e-02 2.346399913086541153e-02 1.429100181289725061e-02 3.835199985620716540e-02 2.456999886584899928e-02 1.487900185663418653e-02 -1.603000150485132209e-03 -2.456900113407523359e-02 1.487799814023895752e-02 -1.602999879243954904e-03 2.457099886584899681e-02 1.487900185670981701e-02 -1.603000150490652099e-03 -2.456300113369708216e-02 1.487299814069273883e-02 -1.602999879272079759e-03 -3.371284643305586872e-10 2.878999978395283335e-03 -2.162900000287576452e-02 -2.030622162403497419e-10 1.337999981565723105e-03 -1.845500000133649607e-02 -3.372261740098272771e-10 2.879999978391287966e-03 -2.163300000287676425e-02 -1.000202997625690468e-06 1.336999981488095181e-03 -1.845700000132997898e-02 1.459999427515195193e-04 -6.210000078167763303e-04 -1.888000000018559901e-02 -1.460000571728493522e-04 -6.220000299008115845e-04 -1.887999999857280231e-02 1.459999428271497766e-04 -6.220000078167763546e-04 -1.888000000018459981e-02 -1.460000571673295163e-04 -6.220000298998127090e-04 -1.887899999857280131e-02 9.392239937312016438e-11 -2.863000022187045263e-03 -2.221199999714021725e-02 -9.977522973306563229e-07 -2.986800000210625833e-02 -2.032999970160037553e-03 -9.999060665609129815e-07 -2.863000022260677770e-03 -2.220999999713469883e-02 2.247400148309940514e-09 -2.986400000203063079e-02 -2.032999970169552945e-03
1.999399707815592956e-06 -2.460001118448139172e-04 -1.121219999997653122e-01 -2.000049363160641001e-06 7.610000013310706281e-04 1.483999999250894871e-03 9.993996266654829053e-07 -2.450001119214430256e-04 -1.121229999997607890e-01 9.999507880998653470e-07 7.590000015579614597e-04 1.483999999236332952e-03 -4.389999765416018984e-04 -2.820000328161158427e-04 3.860000027048997306e-04 4.370000234528757604e-04 -2.819999665650090286e-04 3.849999978695062817e-04 -4.409999766928624073e-04 -2.800000329673763087e-04 3.860000027139417057e-04 4.400000235285060363e-04 -2.829999663381182269e-04 3.849999978539455953e-04 9.999733977571499545e-07 2.499999986831951586e-04 -1.394000000255239029e-03 -2.566584468961944787e-11 2.889999993107741200e-04 -6.900000002886753003e-04 1.999973613608209266e-06 2.469999987568276462e-04 -1.396000000257762233e-03 -2.559573428737869776e-11 2.879999993097752745e-04 -6.910000002876764491e-04 -4.679999794453752575e-04 -2.420000349874181010e-04 4.080000028250204878e-04 4.690000207114023898e-04 -2.439999641208678101e-04 4.089999976549136564e-04 -4.689999792775552054e-04 -2.440000350600517263e-04 4.110000028325380933e-04 4.670000204955513496e-04 -2.409999642701305821e-04 4.109999976629567504e-04 2.374585113971055581e-09 -2.862999996212649972e-02 3.791600002859783075e-02 -9.996815943085007027e-07 -2.881999981900057895e-03 1.819600000288428346e-02 1.002374347183484212e-06 -2.862699996205286812e-02 3.791400002858932167e-02 3.184923614646721369e-10 -2.882999981822430020e-03 1.819800000287976130e-02 -1.199998314231212420e-04 -6.629999876437264045e-04 2.145600000132463769e-02 1.200001685879177718e-04 -6.629999694904666931e-04 2.145799999999987301e-02 -1.189998314766720907e-04 -6.619999875641006211e-04 2.146000000131811913e-02 1.180001685879177774e-04 -6.629999696417272076e-04 2.145800000001091279e-02 1.000013248641601142e-06 1.421000021921063660e-03 2.186999999857507787e-02 -1.132418932925755036e-10 2.863000018690976377e-03 1.871199999714021761e-02 2.000013184051050976e-06 1.422000021998691801e-03 2.187199999856855731e-02 -1.000113171782887342e-06 2.862000018614347004e-03 1.871099999714673223e-02 -2.343300086816007058e-02 1.427599826603609054e-02 3.832300011508681797e-02 2.343099913198001816e-02 1.427400181037048570e-02 3.832099985640630146e-02 -2.343000086808996046e-02 1.427499826626198176e-02 3.832200011507125303e-02 2.343199913192646824e-02 1.427500181045011224e-02 3.832499985639978290e-02 2.453699886713858400e-02 1.486100185412540277e-02 -1.616000150284997369e-03 -2.453800113285575790e-02 1.486099814257150695e-02 -1.614999879398089496e-03 2.453899886713858253e-02 1.486100185427666372e-02 -1.616000150296036933e-03 -2.453600113270449495e-02 1.485899814272276936e-02 -1.614999879407131309e-03 -3.366194842306252533e-10 2.872999978405272378e-03 -2.161900000286976972e-02 9.997972033135172391e-07 1.334999981648345418e-03 -1.844800000133901829e-02 -3.366951144882715274e-10 2.873999978405272077e-03 -2.161900000287076892e-02 -2.027966864795718930e-10 1.334999981572715161e-03 -1.844800000133349840e-02 1.449999428768284921e-04 -6.220000078834167327e-04 -1.887100000017907786e-02 -1.470000571176508007e-04 -6.220000299664530871e-04 -1.886999999856728283e-02 1.459999428011982050e-04 -6.210000078077864511e-04 -1.887100000018559695e-02 -1.470000570420205435e-04 -6.230000299664530030e-04 -1.886999999856628363e-02 9.355693551373123979e-11 -2.857000022171063327e-03 -2.219599999714621033e-02 2.244470999965325119e-09 -2.982600000204061602e-02 -2.042999970207510455e-03 1.000093556935510713e-06 -2.857000022095432853e-03 -2.219599999715173022e-02 -1.997755610150141540e-06 -2.982500000219287864e-02 -2.043999970197469141e-03
4.999400795227100087e-06 -2.460001114211444084e-04 -1.119249999997818656e-01 -4.820110750527138471e-11 7.460000014873255890e-04 1.488999999254838344e-03 9.994010977481413986e-07 -2.500001117236654263e-04 -1.119249999997558032e-01 -5.000048892819520781e-06 7.550000011071765537e-04 1.486999999273447542e-03 -4.329999769252730374e-04 -2.770000323633331615e-04 3.850000026667862053e-04 4.360000236687268361e-04 -2.849999666426370013e-04 3.829999978780228038e-04 -4.369999768662023308e-04 -2.780000326688507870e-04 3.820000026898645140e-04 4.360000230156538086e-04 -2.759999666376426221e-04 3.879999978690329377e-04 9.999735766169424047e-07 2.479999986881895415e-04 -1.389000000253241265e-03 9.999743231155965832e-07 2.889999993844066264e-04 -6.920000002941951306e-04 -2.627212253931357531e-11 2.459999986125592899e-04 -1.389000000245723624e-03 -3.000025486984888818e-06 2.869999990888777311e-04 -6.850000002701179744e-04 -4.579999797904075022e-04 -2.370000342251222625e-04 4.140000027648275179e-04 4.590000201875105070e-04 -2.369999648761714997e-04 4.099999977031200740e-04 -4.679999796501866315e-04 -2.390000349834226075e-04 4.120000028220238502e-04 4.640000205767014240e-04 -2.419999644960224756e-04 4.119999976805151579e-04 5.002370437066198136e-06 -2.857799996178730581e-02 3.787700002851829284e-02 -9.996822435094051901e-07 -2.873999981908048704e-03 1.818800000287628879e-02 -1.997629347082719109e-06 -2.858099996231871359e-02 3.787500002855992420e-02 -9.996821032886007689e-07 -2.875999981910046504e-03 1.818600000287828866e-02 -1.189998318509512439e-04 -6.579999875770860132e-04 2.144700000131412321e-02 1.190001682947887417e-04 -6.599999695780835998e-04 2.144600000000239717e-02 -1.179998316130207489e-04 -6.609999874994580780e-04 2.144900000131159945e-02 1.180001682246783367e-04 -6.589999696527149573e-04 2.144700000000691886e-02 1.000013139892211220e-06 1.422000021915070540e-03 2.186399999857407961e-02 -1.128913412813717046e-10 2.858000018685981879e-03 1.870699999714521208e-02 1.340929411223191559e-11 1.418000021833446932e-03 2.185799999858359377e-02 -1.127400807660791047e-10 2.856000018685982047e-03 1.870699999714721048e-02 -2.338700086606780235e-02 1.424599826948311915e-02 3.829100011486286786e-02 2.339299913386195737e-02 1.424700180746756896e-02 3.829199985664302752e-02 -2.339400086616551244e-02 1.424699826894971003e-02 3.828700011490050736e-02 2.339099913389894661e-02 1.424600180730931608e-02 3.828499985665506644e-02 2.449299886936720516e-02 1.483000185077669626e-02 -1.637000150011158443e-03 -2.449500113045931585e-02 1.482799814580562994e-02 -1.632999879602480258e-03 2.449499886937824347e-02 1.483000185092995388e-02 -1.635000150022198175e-03 -2.449300113082091002e-02 1.483299814595988829e-02 -1.629999879618514343e-03 9.996638249053193960e-07 2.867999978492888694e-03 -2.160700000287029895e-02 -1.000202763567344296e-06 1.334999981503078156e-03 -1.844200000132797945e-02 -3.366343960788103918e-10 2.873999978416259815e-03 -2.160800000287076833e-02 -1.000202752527633340e-06 1.334999981505075907e-03 -1.844000000132798092e-02 1.399999426664972691e-04 -6.190000082585713197e-04 -1.886800000015447301e-02 -1.450000573114224815e-04 -6.190000298091992469e-04 -1.886399999858131421e-02 1.459999427531672356e-04 -6.200000078027920495e-04 -1.886600000018659462e-02 -1.440000574847624237e-04 -6.170000297375645513e-04 -1.886799999858883303e-02 -3.999906729025938453e-06 -2.853000022470587958e-03 -2.219299999712812804e-02 2.240108748862803722e-09 -2.977000000206359367e-02 -2.065999970263447498e-03 -3.999906673827383884e-06 -2.853000022460598986e-03 -2.218299999712812845e-02 4.002240200938674832e-06 -2.977100000175807171e-02 -2.062999970284527893e-03
-4.000598579463881303e-06 -2.350001118381131991e-04 -1.116609999997431879e-01 6.999951697887358821e-06 7.450000019847732424e-04 1.456999999217197970e-03 9.994026030209491712e-07 -2.510001114649562724e-04 -1.116659999997548086e-01 6.999950758852853116e-06 7.580000019927642368e-04 1.464999999204212675e-03 -4.329999772443536283e-04 -2.730000323663297991e-04 3.820000026627907389e-04 4.350000236891584933e-04 -2.859999667282560375e-04 3.729999978845415431e-04 -4.269999771151725826e-04 -2.750000319165437517e-04 3.780000026316693231e-04 4.380000228682654081e-04 -2.749999664993675185e-04 3.749999978569943456e-04 -3.000026666833385586e-06 2.509999983826718506e-04 -1.392000000234158404e-03 1.999974267917039640e-06 2.889999994500480748e-04 -7.020000002997150469e-04 -1.000026364312360215e-06 2.469999985339323763e-04 -1.392000000241202682e-03 -2.000026114106373768e-06 2.949999991605124642e-04 -6.890000002836288570e-04 -4.639999790948232702e-04 -2.470000346898914081e-04 4.030000028079354000e-04 4.510000201599112415e-04 -2.369999654862079894e-04 4.049999977472788565e-04 -4.629999805097186820e-04 -2.280000346102657293e-04 4.070000027834369733e-04 4.630000208665350407e-04 -2.469999645876347805e-04 3.959999976910293616e-04 3.002364968537215210e-06 -2.850999996199750017e-02 3.781800002846140429e-02 -3.999682575277421934e-06 -2.870999982153918471e-03 1.816900000288985614e-02 1.002364968537220594e-06 -2.850999996214876112e-02 3.781800002847244407e-02 3.173822114409422840e-10 -2.869999981845404273e-03 1.817500000286677644e-02 -1.229998315406859372e-04 -6.639999879055778417e-04 2.142100000134219626e-02 1.220001681567923346e-04 -6.599999693761647145e-04 2.142099999998583679e-02 -1.189998319188372347e-04 -6.589999876030567996e-04 2.142100000131512069e-02 1.210001682749337282e-04 -6.619999694577882732e-04 2.141499999999335255e-02 -1.999986555362329726e-06 1.416000021661210093e-03 2.183699999859662830e-02 -1.122084445432124029e-10 2.847000018659012407e-03 1.867999999715619711e-02 5.000013481628919923e-06 1.415000022183629741e-03 2.182999999855898821e-02 -2.000112136686416972e-06 2.847000018520737166e-03 1.869299999716723948e-02 -2.332700086448228488e-02 1.421999827395201144e-02 3.822200011455764712e-02 2.332599913560425356e-02 1.421900180233242120e-02 3.822399985704082875e-02 -2.332900086431998268e-02 1.421799827380274862e-02 3.822400011457068036e-02 2.333099913576103593e-02 1.421700180271156903e-02 3.822499985701522524e-02 2.442399887146499970e-02 1.480000184552724384e-02 -1.668000149600322142e-03 -2.442900112845371174e-02 1.479899815076326543e-02 -1.666999879937823515e-03 2.443099887180616089e-02 1.479600184606364756e-02 -1.661000149634965593e-03 -2.442800112847027041e-02 1.479899815083590003e-02 -1.669999879943343370e-03 -4.000335265883855133e-06 2.856999978128721938e-03 -2.159300000283171164e-02 9.997975185219768959e-07 1.331999981664327461e-03 -1.843200000133602551e-02 -3.000335708625694166e-06 2.862999978206349876e-03 -2.159100000284322127e-02 -2.024224073287143997e-10 1.330999981585700553e-03 -1.843500000132950595e-02 1.399999428895159213e-04 -6.210000082455859874e-04 -1.885500000015247896e-02 -1.410000570293331722e-04 -6.220000294966895361e-04 -1.885399999860040005e-02 1.469999428508769149e-04 -6.210000077231663147e-04 -1.886200000019111825e-02 -1.480000570679721123e-04 -6.220000300330934652e-04 -1.886099999856176088e-02 3.000093117489106255e-06 -2.849000021914206530e-03 -2.216599999717076136e-02 2.002234287443437461e-06 -2.969500000193930206e-02 -2.092999970349402727e-03 -2.999907120441360767e-06 -2.846000022369985644e-03 -2.216799999714063815e-02 -1.997765474626067113e-06 -2.969800000223982508e-02 -2.090999970324326600e-03
