2.616249999999999964e+00 3.466340000000000199e+00 4.958940000000000126e+00 9.828170000000000073e+00 4.035260000000000069e+00 2.354049999999999976e+00 2.020640000000000214e+00 1.253109999999999946e+00 2.354089999999999794e+00 5.671909999999999563e+00 3.466340000000000199e+00 4.958940000000000126e+00 3.716870000000000118e+00 4.035269999999999690e+00 2.354049999999999976e+00 5.076290000000000191e+00 1.253120000000000012e+00 2.354080000000000172e+00 8.727560000000000429e+00 3.466330000000000133e+00 4.958960000000000257e+00 6.772520000000000095e+00 4.035280000000000200e+00 2.354039999999999910e+00 8.131959999999999411e+00 1.253120000000000012e+00 2.354099999999999859e+00 1.256820000000000048e+00 6.248509999999999565e+00 4.958960000000000257e+00 2.953059999999999796e+00 9.030680000000000263e+00 4.958940000000000126e+00 2.357450000000000045e+00 6.817450000000000010e+00 2.354089999999999794e+00 4.312490000000000379e+00 6.248509999999999565e+00 4.958949999999999747e+00 6.008700000000000152e+00 9.030659999999999243e+00 4.958949999999999747e+00 5.413100000000000023e+00 6.817459999999999631e+00 2.354099999999999859e+00 7.368129999999999846e+00 6.248520000000000074e+00 4.958949999999999747e+00 9.064370000000000260e+00 9.030659999999999243e+00 4.958940000000000126e+00 8.468759999999999621e+00 6.817459999999999631e+00 2.354089999999999794e+00 1.118995999999999924e+01 5.049220000000000041e+00 9.695880000000000720e+00 3.382429999999999826e+00 2.267059999999999853e+00 9.695909999999999584e+00 5.078649999999999665e+00 5.049220000000000041e+00 9.695880000000000720e+00 6.438100000000000378e+00 2.267049999999999788e+00 9.695919999999999206e+00 8.134299999999999642e+00 5.049210000000000420e+00 9.695869999999999322e+00 9.493740000000000734e+00 2.267059999999999853e+00 9.695909999999999584e+00 3.719250000000000167e+00 7.831409999999999982e+00 9.695919999999999206e+00 6.774899999999999700e+00 7.831400000000000361e+00 9.695919999999999206e+00 9.830550000000000566e+00 7.831409999999999982e+00 9.695909999999999584e+00 3.978040000000000020e+00 4.480279999999999596e+00 1.230076999999999998e+01 7.033699999999999619e+00 4.480279999999999596e+00 1.230076999999999998e+01 1.008934999999999960e+01 4.480260000000000353e+00 1.230076999999999998e+01 2.618609999999999882e+00 7.262459999999999916e+00 1.230076999999999998e+01 4.314840000000000231e+00 1.004462000000000010e+01 1.230077999999999960e+01 5.674280000000000435e+00 7.262439999999999785e+00 1.230077999999999960e+01 7.370499999999999829e+00 1.004462000000000010e+01 1.230077999999999960e+01 8.729919999999999902e+00 7.262459999999999916e+00 1.230077999999999960e+01 1.042615999999999943e+01 1.004462000000000010e+01 1.230077999999999960e+01 5.339830000000000076e+00 5.494220000000000326e+00 1.964258999999999844e+01 1.255174000000000056e+01 6.063150000000000261e+00 1.703769000000000133e+01 4.744220000000000326e+00 3.281000000000000139e+00 1.703774999999999906e+01 8.395490000000000563e+00 5.494220000000000326e+00 1.964258999999999844e+01 6.440439999999999721e+00 6.063150000000000261e+00 1.703771000000000058e+01 7.799879999999999924e+00 3.281010000000000204e+00 1.703773999999999944e+01 1.145112999999999914e+01 5.494220000000000326e+00 1.964258999999999844e+01 9.496090000000000586e+00 6.063159999999999883e+00 1.703769000000000133e+01 1.085552999999999990e+01 3.281019999999999825e+00 1.703772999999999982e+01 3.980399999999999938e+00 8.276400000000000645e+00 1.964260000000000161e+01 5.676630000000000287e+00 1.105855999999999995e+01 1.964258999999999844e+01 5.081030000000000157e+00 8.845349999999999824e+00 1.703772999999999982e+01 7.036050000000000360e+00 8.276400000000000645e+00 1.964260000000000161e+01 8.732279999999999376e+00 1.105855999999999995e+01 1.964261000000000124e+01 8.136680000000000135e+00 8.845340000000000202e+00 1.703774999999999906e+01 1.009172000000000047e+01 8.276400000000000645e+00 1.964258999999999844e+01 1.178795000000000037e+01 1.105855000000000032e+01 1.964260000000000161e+01 1.119233999999999973e+01 8.845340000000000202e+00 1.703774999999999906e+01 1.930420000000000025e+00 1.737718999999999880e+01 4.958940000000000126e+00 4.986080000000000290e+00 1.737717999999999918e+01 4.958949999999999747e+00 8.041740000000000776e+00 1.737718999999999880e+01 4.958949999999999747e+00 1.016497000000000028e+01 9.599600000000000577e+00 2.354049999999999976e+00 4.053670000000000329e+00 9.599610000000000198e+00 2.354049999999999976e+00 7.109320000000000306e+00 9.599610000000000198e+00 2.354049999999999976e+00 1.593630000000000102e+00 1.181284999999999918e+01 4.958949999999999747e+00 3.289849999999999941e+00 1.459500000000000064e+01 4.958940000000000126e+00 1.050177000000000049e+01 1.516394000000000020e+01 2.354049999999999976e+00 2.694240000000000190e+00 1.238179000000000052e+01 2.354089999999999794e+00 4.649280000000000079e+00 1.181283999999999956e+01 4.958960000000000257e+00 6.345509999999999984e+00 1.459501000000000026e+01 4.958940000000000126e+00 4.390460000000000029e+00 1.516394999999999982e+01 2.354039999999999910e+00 5.749900000000000233e+00 1.238180000000000014e+01 2.354080000000000172e+00 7.704930000000000057e+00 1.181284999999999918e+01 4.958940000000000126e+00 9.401149999999999451e+00 1.459501000000000026e+01 4.958940000000000126e+00 7.446119999999999628e+00 1.516394999999999982e+01 2.354039999999999910e+00 8.805559999999999832e+00 1.238180000000000014e+01 2.354080000000000172e+00 1.152674999999999983e+01 1.061355999999999966e+01 9.695869999999999322e+00 5.415449999999999875e+00 1.061355000000000004e+01 9.695880000000000720e+00 8.471120000000000871e+00 1.061355000000000004e+01 9.695880000000000720e+00 2.696610000000000174e+00 1.617787999999999826e+01 9.695869999999999322e+00 4.056029999999999802e+00 1.339574999999999960e+01 9.695919999999999206e+00 5.752259999999999707e+00 1.617790000000000106e+01 9.695869999999999322e+00 7.111699999999999910e+00 1.339574999999999960e+01 9.695919999999999206e+00 8.807909999999999684e+00 1.617789000000000144e+01 9.695880000000000720e+00 1.016733999999999938e+01 1.339573999999999998e+01 9.695909999999999584e+00 3.292219999999999924e+00 1.839113000000000042e+01 1.230076999999999998e+01 6.347879999999999967e+00 1.839114000000000004e+01 1.230077999999999960e+01 9.403529999999999944e+00 1.839113000000000042e+01 1.230076999999999998e+01 2.955420000000000158e+00 1.282679000000000080e+01 1.230076999999999998e+01 4.651650000000000063e+00 1.560895000000000010e+01 1.230077999999999960e+01 6.011059999999999626e+00 1.282680000000000042e+01 1.230076999999999998e+01 7.707309999999999661e+00 1.560895000000000010e+01 1.230076999999999998e+01 9.066720000000000113e+00 1.282679000000000080e+01 1.230077999999999960e+01 1.076295999999999964e+01 1.560895000000000010e+01 1.230076999999999998e+01 4.653999999999999915e+00 1.940508000000000166e+01 1.964260000000000161e+01 7.709660000000000402e+00 1.940506999999999849e+01 1.964258999999999844e+01 1.076533000000000051e+01 1.940508000000000166e+01 1.964260000000000161e+01 3.721600000000000019e+00 1.162749999999999950e+01 1.703769000000000133e+01 6.777239999999999931e+00 1.162748999999999988e+01 1.703769000000000133e+01 9.832900000000000418e+00 1.162749999999999950e+01 1.703770000000000095e+01 4.317199999999999704e+00 1.384074000000000026e+01 1.964261000000000124e+01 6.013440000000000119e+00 1.662289000000000172e+01 1.964258999999999844e+01 1.322535000000000061e+01 1.719183999999999912e+01 1.703769000000000133e+01 5.417839999999999989e+00 1.440967999999999982e+01 1.703773999999999944e+01 7.372860000000000191e+00 1.384073000000000064e+01 1.964261000000000124e+01 9.069089999999999208e+00 1.662289000000000172e+01 1.964258999999999844e+01 7.114040000000000141e+00 1.719182999999999950e+01 1.703769000000000133e+01 8.473489999999999966e+00 1.440968999999999944e+01 1.703773999999999944e+01 1.042850999999999928e+01 1.384073000000000064e+01 1.964260000000000161e+01 1.212473999999999918e+01 1.662289000000000172e+01 1.964258999999999844e+01 1.016968999999999923e+01 1.719183999999999912e+01 1.703771000000000058e+01 1.152913000000000032e+01 1.440968999999999944e+01 1.703773999999999944e+01 7.905799999999999494e-01 2.359729999999999883e+00 3.656489999999999796e+00 1.050899000000000072e+01 4.541260000000000296e+00 6.028179999999999872e+00 1.935480000000000089e+00 2.960350000000000037e+00 1.284999999999999920e+00 2.392700000000000105e-01 1.781500000000000028e-01 1.284969999999999946e+00 2.486839999999999939e+00 5.141910000000000203e+00 3.656569999999999876e+00 2.701459999999999972e+00 1.759120000000000017e+00 6.028249999999999886e+00 3.846229999999999816e+00 2.359719999999999818e+00 3.656480000000000175e+00 4.397680000000000256e+00 4.541249999999999787e+00 6.028200000000000003e+00 4.991130000000000067e+00 2.960360000000000102e+00 1.284999999999999920e+00 3.294909999999999783e+00 1.781600000000000128e-01 1.284980000000000011e+00 5.542480000000000295e+00 5.141919999999999824e+00 3.656569999999999876e+00 5.757119999999999571e+00 1.759120000000000017e+00 6.028260000000000396e+00 6.901880000000000237e+00 2.359729999999999883e+00 3.656489999999999796e+00 7.453339999999999854e+00 4.541260000000000296e+00 6.028190000000000381e+00 8.046780000000000044e+00 2.960360000000000102e+00 1.284990000000000077e+00 6.350559999999999761e+00 1.781399999999999928e-01 1.284980000000000011e+00 8.598140000000000782e+00 5.141899999999999693e+00 3.656579999999999941e+00 8.812780000000000058e+00 1.759109999999999951e+00 6.028249999999999886e+00 1.127380000000000049e+00 7.924070000000000391e+00 3.656489999999999796e+00 5.760699999999999710e-01 5.742490000000000094e+00 1.284980000000000011e+00 3.038260000000000183e+00 7.323450000000000237e+00 6.028260000000000396e+00 4.183029999999999582e+00 7.924070000000000391e+00 3.656480000000000175e+00 3.631709999999999994e+00 5.742499999999999716e+00 1.284980000000000011e+00 6.093910000000000160e+00 7.323450000000000237e+00 6.028260000000000396e+00 7.238690000000000069e+00 7.924070000000000391e+00 3.656489999999999796e+00 6.687380000000000102e+00 5.742479999999999585e+00 1.284990000000000077e+00 9.149570000000000647e+00 7.323459999999999859e+00 6.028260000000000396e+00 2.152359999999999829e+00 3.373670000000000169e+00 1.099831000000000003e+01 3.297260000000000080e+00 3.974310000000000009e+00 8.626810000000000755e+00 1.601050000000000084e+00 1.192080000000000028e+00 8.626799999999999358e+00 3.848609999999999864e+00 6.155850000000000044e+00 1.099840000000000018e+01 5.208029999999999937e+00 3.373660000000000103e+00 1.099831999999999965e+01 6.352920000000000122e+00 3.974310000000000009e+00 8.626820000000000377e+00 4.656710000000000349e+00 1.192090000000000094e+00 8.626799999999999358e+00 6.904270000000000351e+00 6.155850000000000044e+00 1.099840000000000018e+01 8.263669999999999405e+00 3.373670000000000169e+00 1.099831999999999965e+01 9.408569999999999212e+00 3.974310000000000009e+00 8.626820000000000377e+00 7.712349999999999817e+00 1.192090000000000094e+00 8.626799999999999358e+00 9.959929999999999950e+00 6.155850000000000044e+00 1.099840000000000018e+01 2.489160000000000039e+00 8.938019999999999854e+00 1.099831000000000003e+01 1.937850000000000072e+00 6.756429999999999936e+00 8.626810000000000755e+00 5.544830000000000148e+00 8.938000000000000611e+00 1.099830000000000041e+01 4.993509999999999671e+00 6.756439999999999557e+00 8.626799999999999358e+00 8.600469999999999615e+00 8.938010000000000232e+00 1.099831999999999965e+01 8.049170000000000158e+00 6.756429999999999936e+00 8.626810000000000755e+00 1.187077999999999989e+01 5.555209999999999759e+00 1.337001000000000062e+01 4.063250000000000028e+00 2.773060000000000080e+00 1.337007999999999974e+01 5.759459999999999802e+00 5.555200000000000138e+00 1.336999999999999922e+01 7.118920000000000137e+00 2.773050000000000015e+00 1.337007999999999974e+01 8.815129999999999910e+00 5.555209999999999759e+00 1.337001000000000062e+01 1.017456999999999923e+01 2.773060000000000080e+00 1.337008999999999936e+01 4.400059999999999860e+00 8.337400000000000588e+00 1.337007999999999974e+01 7.455700000000000216e+00 8.337400000000000588e+00 1.337008999999999936e+01 1.051135999999999981e+01 8.337400000000000588e+00 1.337007000000000012e+01 3.514149999999999885e+00 4.387620000000000076e+00 1.834014000000000166e+01 1.323255999999999943e+01 6.569139999999999979e+00 2.071182999999999907e+01 4.659069999999999823e+00 4.988249999999999851e+00 1.596862999999999921e+01 2.962839999999999918e+00 2.206039999999999779e+00 1.596864000000000061e+01 5.210410000000000430e+00 7.169810000000000016e+00 1.834022999999999826e+01 5.425049999999999706e+00 3.786989999999999856e+00 2.071189999999999998e+01 6.569810000000000372e+00 4.387620000000000076e+00 1.834012999999999849e+01 7.121260000000000367e+00 6.569149999999999601e+00 2.071183999999999870e+01 7.714699999999999669e+00 4.988249999999999851e+00 1.596864000000000061e+01 6.018489999999999895e+00 2.206049999999999844e+00 1.596864000000000061e+01 8.266059999999999519e+00 7.169789999999999885e+00 1.834022999999999826e+01 8.480700000000000571e+00 3.787009999999999987e+00 2.071190999999999960e+01 9.625460000000000349e+00 4.387609999999999566e+00 1.834012999999999849e+01 1.017690999999999946e+01 6.569149999999999601e+00 2.071183999999999870e+01 1.077036000000000016e+01 4.988240000000000229e+00 1.596864000000000061e+01 9.074149999999999494e+00 2.206039999999999779e+00 1.596864000000000061e+01 1.132173000000000052e+01 7.169810000000000016e+00 1.834021999999999863e+01 1.153636000000000017e+01 3.787009999999999987e+00 2.071189999999999998e+01 3.850960000000000161e+00 9.951959999999999695e+00 1.834014000000000166e+01 3.299650000000000194e+00 7.770380000000000287e+00 1.596861999999999959e+01 5.761840000000000295e+00 9.351340000000000430e+00 2.071190999999999960e+01 6.906609999999999694e+00 9.951950000000000074e+00 1.834012999999999849e+01 6.355290000000000106e+00 7.770369999999999777e+00 1.596861999999999959e+01 8.817500000000000782e+00 9.351340000000000430e+00 2.071190999999999960e+01 9.962249999999999162e+00 9.951959999999999695e+00 1.834014000000000166e+01 9.410949999999999704e+00 7.770380000000000287e+00 1.596862999999999921e+01 1.187316000000000038e+01 9.351340000000000430e+00 2.071189999999999998e+01 1.084578999999999915e+01 1.010558999999999941e+01 6.028190000000000381e+00 2.272289999999999921e+00 8.524689999999999657e+00 1.284999999999999920e+00 2.823620000000000019e+00 1.070626000000000033e+01 3.656569999999999876e+00 4.734479999999999578e+00 1.010558999999999941e+01 6.028179999999999872e+00 5.327919999999999767e+00 8.524699999999999278e+00 1.284980000000000011e+00 5.879290000000000127e+00 1.070625000000000071e+01 3.656569999999999876e+00 7.790140000000000065e+00 1.010560000000000080e+01 6.028190000000000381e+00 8.383580000000000254e+00 8.524689999999999657e+00 1.284999999999999920e+00 8.934939999999999216e+00 1.070625000000000071e+01 3.656569999999999876e+00 1.464180000000000037e+00 1.348841000000000001e+01 3.656489999999999796e+00 1.118260000000000076e+01 1.566993000000000080e+01 6.028179999999999872e+00 2.609090000000000131e+00 1.408904000000000067e+01 1.284990000000000077e+00 9.128600000000000048e-01 1.130682000000000009e+01 1.284990000000000077e+00 3.160429999999999851e+00 1.627058999999999855e+01 3.656569999999999876e+00 3.375070000000000014e+00 1.288779000000000075e+01 6.028260000000000396e+00 4.519840000000000302e+00 1.348841000000000001e+01 3.656489999999999796e+00 5.071270000000000167e+00 1.566993000000000080e+01 6.028200000000000003e+00 5.664729999999999599e+00 1.408902999999999928e+01 1.284999999999999920e+00 3.968519999999999825e+00 1.130682000000000009e+01 1.284969999999999946e+00 6.216079999999999828e+00 1.627058999999999855e+01 3.656579999999999941e+00 6.430729999999999613e+00 1.288780000000000037e+01 6.028260000000000396e+00 7.575479999999999769e+00 1.348840000000000039e+01 3.656480000000000175e+00 8.126950000000000784e+00 1.566993000000000080e+01 6.028190000000000381e+00 8.720380000000000464e+00 1.408902999999999928e+01 1.284999999999999920e+00 7.024180000000000312e+00 1.130682999999999971e+01 1.284990000000000077e+00 9.271739999999999426e+00 1.627058999999999855e+01 3.656569999999999876e+00 9.486380000000000479e+00 1.288780000000000037e+01 6.028249999999999886e+00 3.634059999999999846e+00 9.538639999999999119e+00 8.626820000000000377e+00 4.185419999999999696e+00 1.172019000000000055e+01 1.099840000000000018e+01 6.689729999999999954e+00 9.538639999999999119e+00 8.626820000000000377e+00 7.241069999999999673e+00 1.172017999999999915e+01 1.099840999999999980e+01 9.745369999999999422e+00 9.538629999999999498e+00 8.626829999999999998e+00 1.029673000000000016e+01 1.172020000000000017e+01 1.099839000000000055e+01 2.825979999999999936e+00 1.450234999999999985e+01 1.099831999999999965e+01 3.970870000000000122e+00 1.510299000000000014e+01 8.626810000000000755e+00 2.274649999999999839e+00 1.232075999999999993e+01 8.626799999999999358e+00 4.522230000000000416e+00 1.728453999999999979e+01 1.099840000000000018e+01 5.881610000000000227e+00 1.450234999999999985e+01 1.099831000000000003e+01 7.026530000000000165e+00 1.510299000000000014e+01 8.626810000000000755e+00 5.330300000000000260e+00 1.232075999999999993e+01 8.626799999999999358e+00 7.577880000000000393e+00 1.728453000000000017e+01 1.099840000000000018e+01 8.937269999999999825e+00 1.450234999999999985e+01 1.099831000000000003e+01 1.008217999999999925e+01 1.510299000000000014e+01 8.626820000000000377e+00 8.385960000000000747e+00 1.232077999999999918e+01 8.626799999999999358e+00 1.063353000000000037e+01 1.728453999999999979e+01 1.099840999999999980e+01 1.220757000000000048e+01 1.111955000000000027e+01 1.337001000000000062e+01 6.096269999999999634e+00 1.111955000000000027e+01 1.337001000000000062e+01 9.151930000000000121e+00 1.111954000000000065e+01 1.337002000000000024e+01 1.254438000000000031e+01 1.668389000000000166e+01 1.337001000000000062e+01 4.736849999999999561e+00 1.390174000000000021e+01 1.337007999999999974e+01 6.433069999999999844e+00 1.668387999999999849e+01 1.337002000000000024e+01 7.792510000000000048e+00 1.390173000000000059e+01 1.337007000000000012e+01 9.488730000000000331e+00 1.668386999999999887e+01 1.337001000000000062e+01 1.084816999999999965e+01 1.390174000000000021e+01 1.337007999999999974e+01 1.356938000000000066e+01 1.213349000000000011e+01 2.071182999999999907e+01 4.995860000000000412e+00 1.055258000000000074e+01 1.596864000000000061e+01 5.547220000000000262e+00 1.273414000000000001e+01 1.834022999999999826e+01 7.458070000000000199e+00 1.213349000000000011e+01 2.071183999999999870e+01 8.051510000000000389e+00 1.055258000000000074e+01 1.596864000000000061e+01 8.602859999999999729e+00 1.273414999999999964e+01 1.834022999999999826e+01 1.051370999999999967e+01 1.213349000000000011e+01 2.071183999999999870e+01 1.110716999999999999e+01 1.055259000000000036e+01 1.596864000000000061e+01 1.165851999999999933e+01 1.273414000000000001e+01 1.834022999999999826e+01 4.187759999999999927e+00 1.551628999999999969e+01 1.834012999999999849e+01 1.390616999999999948e+01 1.769782999999999973e+01 2.071182999999999907e+01 5.332659999999999734e+00 1.611692999999999998e+01 1.596864000000000061e+01 3.636449999999999960e+00 1.333470999999999940e+01 1.596862999999999921e+01 5.884009999999999962e+00 1.829848000000000141e+01 1.834022999999999826e+01 6.098650000000000126e+00 1.491568000000000005e+01 2.071189999999999998e+01 7.243420000000000414e+00 1.551628999999999969e+01 1.834012999999999849e+01 7.794870000000000410e+00 1.769782000000000011e+01 2.071183999999999870e+01 8.388320000000000221e+00 1.611692999999999998e+01 1.596864000000000061e+01 6.692109999999999559e+00 1.333472000000000079e+01 1.596861999999999959e+01 8.939659999999999940e+00 1.829846999999999824e+01 1.834022999999999826e+01 9.154310000000000613e+00 1.491568999999999967e+01 2.071189999999999998e+01 1.029906000000000077e+01 1.551629999999999932e+01 1.834012999999999849e+01 1.085050999999999988e+01 1.769782999999999973e+01 2.071182999999999907e+01 1.144397000000000020e+01 1.611692999999999998e+01 1.596864000000000061e+01 9.747749999999999915e+00 1.333472000000000079e+01 1.596861999999999959e+01 1.199531999999999954e+01 1.829846999999999824e+01 1.834022999999999826e+01 1.220996000000000059e+01 1.491568000000000005e+01 2.071190999999999960e+01