-2.755009812679999868e+03
-2.755005535360000067e+03
-2.754940459250000004e+03
-2.754815254019999884e+03
-2.754631317419999959e+03
-2.754390423610000198e+03
-2.754095016750000013e+03
-2.753748034939999798e+03
-2.753352863030000208e+03
-2.752913352919999852e+03
