1.437309999999999977e-01 -8.408699999999999508e-02 5.902000000000000128e-03 -1.441560000000000064e-01 8.242700000000000027e-02 -4.133999999999999654e-03 -1.436570000000000069e-01 8.385700000000000098e-02 -4.686000000000000061e-03 1.435639999999999972e-01 -8.397699999999999609e-02 5.406000000000000215e-03 -1.439950000000000119e-01 8.255099999999999938e-02 -4.315000000000000259e-03 -1.437440000000000107e-01 8.348200000000000065e-02 -4.898999999999999709e-03 1.432009999999999950e-01 -8.358000000000000151e-02 5.806999999999999662e-03 -1.442049999999999998e-01 8.212099999999999955e-02 -4.093000000000000284e-03 -1.437239999999999907e-01 8.318799999999999806e-02 -4.687000000000000194e-03 1.432160000000000100e-01 -8.237300000000000177e-02 5.447999999999999718e-03 1.438500000000000056e-01 -8.260299999999999587e-02 6.196000000000000119e-03 -1.428359999999999908e-01 8.243599999999999539e-02 -5.050999999999999934e-03 1.419320000000000026e-01 -8.237800000000000678e-02 6.339000000000000017e-03 1.432599999999999985e-01 -8.301999999999999658e-02 6.287000000000000054e-03 -1.433639999999999914e-01 8.205900000000000694e-02 -5.403999999999999949e-03 1.429330000000000045e-01 -8.279699999999999560e-02 5.956999999999999622e-03 1.425790000000000113e-01 -8.225000000000000366e-02 6.686000000000000103e-03 -1.442029999999999978e-01 8.184900000000000508e-02 -4.348000000000000302e-03 -1.441320000000000101e-01 8.221900000000000042e-02 -4.030999999999999861e-03 -1.435710000000000042e-01 8.397499999999999409e-02 -4.996999999999999706e-03 -1.439650000000000096e-01 8.257499999999999563e-02 -4.364999999999999956e-03 -1.437470000000000137e-01 8.359600000000000364e-02 -5.043999999999999873e-03 -1.440710000000000046e-01 8.224499999999999866e-02 -4.068999999999999700e-03 -1.436530000000000029e-01 8.305099999999999982e-02 -4.573999999999999941e-03 -1.427579999999999960e-01 8.222899999999999654e-02 -5.187999999999999903e-03 -1.434999999999999887e-01 8.209700000000000331e-02 -5.272999999999999909e-03 -1.442279999999999951e-01 8.173400000000000110e-02 -4.133999999999999654e-03 1.437620000000000009e-01 -8.423999999999999544e-02 5.939999999999999968e-03 1.436759999999999982e-01 -8.422300000000000619e-02 5.467999999999999770e-03 1.429779999999999940e-01 -8.336999999999999966e-02 5.856000000000000094e-03 1.430170000000000052e-01 -8.238499999999999990e-02 5.680000000000000153e-03 1.439139999999999864e-01 -8.254899999999999738e-02 5.951999999999999826e-03 1.420430000000000026e-01 -8.223099999999999854e-02 6.157000000000000146e-03 1.431280000000000052e-01 -8.322899999999999743e-02 6.278999999999999859e-03 1.430750000000000077e-01 -8.286599999999999522e-02 5.950000000000000427e-03 1.429130000000000122e-01 -8.267800000000000149e-02 6.364999999999999998e-03 1.438079999999999914e-01 -8.418699999999999795e-02 6.140999999999999757e-03 -1.440029999999999921e-01 8.245700000000000252e-02 -4.334000000000000179e-03 -1.435079999999999967e-01 8.404100000000000459e-02 -4.982999999999999582e-03 1.436030000000000084e-01 -8.425799999999999956e-02 5.627000000000000057e-03 -1.438859999999999861e-01 8.270500000000000074e-02 -4.465000000000000219e-03 -1.438270000000000104e-01 8.361699999999999688e-02 -4.971999999999999857e-03 1.429600000000000037e-01 -8.342099999999999516e-02 6.217000000000000304e-03 -1.440889999999999949e-01 8.218999999999999917e-02 -4.431000000000000043e-03 -1.438419999999999976e-01 8.306399999999999895e-02 -4.422999999999999848e-03 1.430220000000000102e-01 -8.253199999999999426e-02 5.813999999999999724e-03 1.438859999999999861e-01 -8.246000000000000552e-02 6.330999999999999822e-03 -1.427410000000000068e-01 8.233400000000000440e-02 -5.429999999999999931e-03 1.421530000000000016e-01 -8.259900000000000575e-02 6.408999999999999767e-03 1.432199999999999862e-01 -8.309600000000000319e-02 6.485999999999999578e-03 -1.433570000000000122e-01 8.193999999999999895e-02 -5.578999999999999758e-03 1.425780000000000103e-01 -8.270700000000000274e-02 6.438000000000000146e-03 1.426020000000000065e-01 -8.232899999999999940e-02 6.816000000000000010e-03 -1.441169999999999951e-01 8.207100000000000506e-02 -5.041999999999999607e-03 1.429960000000000120e-01 -8.303499999999999770e-02 6.283000000000000390e-03 1.422799999999999898e-01 -8.227199999999999791e-02 6.673000000000000112e-03 1.435349999999999959e-01 -8.222400000000000542e-02 6.004999999999999921e-03 -1.441419999999999924e-01 8.376000000000000112e-02 -4.184000000000000219e-03 -1.444100000000000106e-01 8.358000000000000151e-02 -3.805999999999999921e-03 -1.443250000000000088e-01 8.421399999999999719e-02 -3.971999999999999836e-03 1.431439999999999935e-01 -8.378499999999999837e-02 5.790000000000000008e-03 1.433999999999999997e-01 -8.304499999999999382e-02 5.701999999999999603e-03 -1.439789999999999959e-01 8.274199999999999611e-02 -4.658999999999999947e-03 -1.432950000000000057e-01 8.187800000000000633e-02 -5.269000000000000246e-03 1.426890000000000103e-01 -8.321699999999999930e-02 6.181999999999999995e-03 1.433500000000000052e-01 -8.268799999999999761e-02 5.573999999999999962e-03 -1.449159999999999893e-01 8.243300000000000627e-02 -3.612000000000000193e-03 -1.436089999999999867e-01 8.187300000000000133e-02 -4.536000000000000101e-03 1.432789999999999897e-01 -8.376300000000000412e-02 6.262000000000000205e-03 1.426439999999999930e-01 -8.275299999999999323e-02 5.970999999999999745e-03 -1.435109999999999997e-01 8.291999999999999371e-02 -4.226999999999999855e-03 -1.434779999999999944e-01 8.195099999999999607e-02 -4.807999999999999774e-03 -1.441149999999999931e-01 8.363400000000000001e-02 -4.127999999999999725e-03 -1.442469999999999863e-01 8.339100000000000679e-02 -3.703000000000000128e-03 -1.444070000000000076e-01 8.433699999999999530e-02 -3.950999999999999651e-03 -1.442559999999999953e-01 8.276999999999999635e-02 -4.370999999999999885e-03 -1.432759999999999867e-01 8.169099999999999973e-02 -5.089999999999999906e-03 -1.448339999999999905e-01 8.240000000000000102e-02 -3.616999999999999989e-03 -1.435960000000000014e-01 8.186799999999999633e-02 -4.615000000000000178e-03 -1.433550000000000102e-01 8.295600000000000196e-02 -4.634000000000000098e-03 -1.434120000000000117e-01 8.209400000000000031e-02 -4.874999999999999993e-03 1.427900000000000003e-01 -8.288099999999999634e-02 6.470000000000000057e-03 1.423929999999999918e-01 -8.247500000000000664e-02 6.753000000000000322e-03 1.434179999999999899e-01 -8.226200000000000179e-02 6.279999999999999992e-03 1.431830000000000047e-01 -8.372000000000000275e-02 5.875000000000000014e-03 1.431630000000000125e-01 -8.282399999999999485e-02 6.004999999999999921e-03 1.426540000000000030e-01 -8.322400000000000631e-02 6.337999999999999884e-03 1.432110000000000050e-01 -8.265899999999999637e-02 5.891999999999999668e-03 1.432920000000000027e-01 -8.366999999999999438e-02 6.106000000000000316e-03 1.423860000000000126e-01 -8.270299999999999874e-02 6.367000000000000264e-03 1.430130000000000012e-01 -8.305899999999999395e-02 6.610999999999999689e-03 1.424870000000000025e-01 -8.228900000000000103e-02 6.873999999999999902e-03 1.431590000000000085e-01 -8.194500000000000395e-02 6.394000000000000378e-03 -1.443190000000000028e-01 8.380300000000000249e-02 -4.448999999999999830e-03 -1.443510000000000071e-01 8.364699999999999913e-02 -3.969000000000000306e-03 -1.442209999999999881e-01 8.429999999999999993e-02 -4.320000000000000055e-03 1.434030000000000027e-01 -8.355400000000000327e-02 5.538000000000000388e-03 1.432090000000000030e-01 -8.300599999999999645e-02 6.157000000000000146e-03 -1.441000000000000059e-01 8.225699999999999679e-02 -4.350999999999999833e-03 -1.435039999999999927e-01 8.198600000000000332e-02 -5.133999999999999675e-03 1.427120000000000055e-01 -8.302199999999999858e-02 6.196000000000000119e-03 1.432839999999999947e-01 -8.266500000000000237e-02 5.810000000000000060e-03 -1.448200000000000043e-01 8.247899999999999676e-02 -3.762999999999999852e-03 -1.436499999999999999e-01 8.210900000000000143e-02 -4.807999999999999774e-03 1.432199999999999862e-01 -8.362300000000000288e-02 6.330999999999999822e-03 1.426109999999999878e-01 -8.284999999999999309e-02 6.303999999999999708e-03 -1.432680000000000065e-01 8.269300000000000261e-02 -4.762999999999999873e-03 -1.432130000000000070e-01 8.204999999999999793e-02 -5.124000000000000082e-03 -3.930000000000000117e-04 -5.929999999999999941e-04 1.430999999999999980e-03 -1.558629000000000042e+00 -7.667370000000000019e-01 7.778009999999999646e-01 1.559509999999999952e+00 7.676340000000000385e-01 -7.797110000000000429e-01 1.558491999999999988e+00 7.683459999999999734e-01 -7.781940000000000524e-01 4.169999999999999987e-04 2.059999999999999928e-04 -8.390000000000000105e-04 -1.557884000000000047e+00 -7.672360000000000291e-01 7.756459999999999466e-01 -3.710000000000000190e-04 -4.209999999999999875e-04 1.036999999999999944e-03 -1.558518999999999988e+00 -7.669510000000000494e-01 7.773400000000000309e-01 1.559458000000000011e+00 7.675389999999999713e-01 -7.790799999999999947e-01 1.558658000000000099e+00 7.680829999999999602e-01 -7.779369999999999896e-01 7.069999999999999462e-04 -1.200000000000000030e-04 -3.330000000000000169e-04 -1.558105999999999991e+00 -7.670799999999999841e-01 7.760759999999999881e-01 1.090000000000000067e-04 -5.990000000000000316e-04 6.570000000000000319e-04 -1.558735999999999899e+00 -7.669390000000000374e-01 7.776610000000000467e-01 1.559716000000000102e+00 7.676190000000000513e-01 -7.791770000000000085e-01 1.558685000000000098e+00 7.685210000000000097e-01 -7.781689999999999996e-01 2.329999999999999986e-04 -6.399999999999999710e-05 -6.099999999999999737e-04 -1.558753999999999973e+00 -7.671179999999999666e-01 7.755490000000000439e-01 6.000000000000000152e-05 -1.012000000000000096e-03 8.729999999999999696e-04 1.559366000000000030e+00 7.677230000000000443e-01 -7.785189999999999610e-01 -1.557916000000000079e+00 -7.669129999999999558e-01 7.764079999999999870e-01 -3.440000000000000132e-04 -8.919999999999999978e-04 8.909999999999999734e-04 1.559382000000000046e+00 7.680369999999999697e-01 -7.787629999999999830e-01 -1.558119999999999949e+00 -7.676049999999999818e-01 7.761620000000000186e-01 -3.200000000000000262e-04 -1.052999999999999900e-03 6.719999999999999628e-04 1.558891000000000027e+00 7.682970000000000077e-01 -7.784609999999999586e-01 -1.558292999999999928e+00 -7.674860000000000015e-01 7.763820000000000165e-01 -1.800000000000000046e-05 -7.330000000000000361e-04 1.430999999999999980e-03 1.559690999999999939e+00 7.675340000000000495e-01 -7.792040000000000077e-01 1.558475999999999972e+00 7.688829999999999831e-01 -7.770660000000000345e-01 6.589999999999999721e-04 -9.699999999999999963e-05 -1.693999999999999976e-03 -2.770000000000000110e-04 -4.859999999999999954e-04 9.120000000000000502e-04 1.559441000000000077e+00 7.674060000000000326e-01 -7.787809999999999455e-01 1.558659999999999934e+00 7.687100000000000044e-01 -7.769409999999999927e-01 8.199999999999999824e-04 -4.699999999999999859e-04 -6.260000000000000373e-04 1.369999999999999961e-04 -7.450000000000000025e-04 8.270000000000000441e-04 1.559787000000000035e+00 7.677359999999999740e-01 -7.791280000000000427e-01 1.558700999999999892e+00 7.686500000000000554e-01 -7.771919999999999940e-01 1.649999999999999991e-04 -4.609999999999999840e-04 -6.099999999999999737e-04 -1.269999999999999970e-04 -1.111999999999999924e-03 8.260000000000000198e-04 1.559279999999999999e+00 7.673360000000000181e-01 -7.787169999999999925e-01 -7.450000000000000025e-04 -7.839999999999999747e-04 7.969999999999999654e-04 1.558777999999999997e+00 7.676150000000000473e-01 -7.783809999999999896e-01 -3.319999999999999926e-04 -1.085999999999999943e-03 4.090000000000000211e-04 1.558723999999999998e+00 7.676979999999999915e-01 -7.784400000000000208e-01 -1.558311999999999919e+00 -7.671029999999999793e-01 7.780340000000000034e-01 -1.557679999999999954e+00 -7.669209999999999638e-01 7.762499999999999956e-01 -1.558276999999999912e+00 -7.675600000000000200e-01 7.781000000000000139e-01 -1.557889999999999997e+00 -7.667559999999999931e-01 7.765009999999999968e-01 -1.558329000000000075e+00 -7.674410000000000398e-01 7.779829999999999801e-01 -1.558186000000000071e+00 -7.670409999999999728e-01 7.759399999999999631e-01 -1.557866999999999891e+00 -7.674440000000000150e-01 7.769059999999999855e-01 -1.557962000000000069e+00 -7.678369999999999918e-01 7.762689999999999868e-01 -1.557997999999999994e+00 -7.676349999999999563e-01 7.764250000000000318e-01 -1.669999999999999935e-04 -3.809999999999999910e-04 1.219000000000000031e-03 -1.558432999999999957e+00 -7.669489999999999919e-01 7.773160000000000069e-01 1.559285000000000032e+00 7.672290000000000498e-01 -7.792700000000000182e-01 1.558440000000000047e+00 7.693299999999999583e-01 -7.784269999999999801e-01 6.049999999999999606e-04 -3.460000000000000076e-04 -9.250000000000000409e-04 -1.557800000000000074e+00 -7.667599999999999971e-01 7.755349999999999744e-01 -4.589999999999999896e-04 -6.780000000000000002e-04 1.342000000000000094e-03 -1.558546999999999905e+00 -7.673510000000000053e-01 7.772679999999999589e-01 1.559360999999999997e+00 7.670860000000000456e-01 -7.790000000000000258e-01 1.558562000000000003e+00 7.689580000000000304e-01 -7.780249999999999666e-01 6.840000000000000377e-04 -3.840000000000000097e-04 -3.879999999999999985e-04 -1.557981000000000060e+00 -7.666789999999999994e-01 7.755319999999999991e-01 -3.170000000000000075e-04 -4.519999999999999821e-04 1.031999999999999931e-03 -1.558216000000000045e+00 -7.672160000000000091e-01 7.770719999999999850e-01 1.559406999999999988e+00 7.677239999999999620e-01 -7.791700000000000292e-01 1.558554999999999913e+00 7.690869999999999651e-01 -7.783719999999999528e-01 1.210000000000000002e-04 -7.079999999999999705e-04 -1.920000000000000049e-04 -1.558524999999999938e+00 -7.669470000000000454e-01 7.754469999999999974e-01 -1.029999999999999964e-04 -1.368000000000000075e-03 1.536999999999999955e-03 1.559058000000000055e+00 7.670500000000000096e-01 -7.785790000000000211e-01 -1.557981999999999978e+00 -7.672240000000000171e-01 7.769979999999999665e-01 -5.990000000000000316e-04 -1.231000000000000106e-03 1.758999999999999930e-03 1.558754999999999891e+00 7.672440000000000371e-01 -7.785109999999999530e-01 -1.557949999999999946e+00 -7.676709999999999923e-01 7.765560000000000240e-01 -3.699999999999999811e-05 -1.448000000000000068e-03 1.479000000000000063e-03 1.558721999999999941e+00 7.672900000000000276e-01 -7.782249999999999446e-01 -1.558456000000000063e+00 -7.676300000000000345e-01 7.768260000000000165e-01 -1.558607000000000076e+00 -7.673750000000000293e-01 7.778289999999999926e-01 1.559423000000000004e+00 7.671229999999999993e-01 -7.791829999999999590e-01 8.440000000000000236e-04 -5.649999999999999641e-04 -6.260000000000000373e-04 -1.559129999999999905e+00 -7.674769999999999648e-01 7.772440000000000460e-01 1.559195000000000109e+00 7.670090000000000519e-01 -7.790500000000000203e-01 3.199999999999999855e-05 -4.739999999999999747e-04 1.350000000000000017e-04 -1.558259000000000061e+00 -7.675619999999999665e-01 7.773900000000000254e-01 1.559239999999999959e+00 7.669259999999999966e-01 -7.790040000000000298e-01 3.029999999999999924e-04 -2.840000000000000185e-04 -2.829999999999999942e-04 2.790000000000000054e-04 -6.639999999999999852e-04 1.423000000000000003e-03 -1.558742000000000072e+00 -7.671390000000000153e-01 7.769319999999999560e-01 1.559214000000000100e+00 7.676760000000000250e-01 -7.783910000000000551e-01 1.558896000000000059e+00 7.683170000000000277e-01 -7.778650000000000286e-01 3.379999999999999758e-04 -3.119999999999999944e-04 -1.534999999999999906e-03 -1.558141999999999916e+00 -7.673980000000000246e-01 7.758570000000000189e-01 -5.069999999999999637e-04 -7.479999999999999670e-04 1.494000000000000102e-03 -1.558856000000000019e+00 -7.670449999999999768e-01 7.768929999999999447e-01 1.559528999999999943e+00 7.676239999999999730e-01 -7.789319999999999578e-01 1.558837999999999946e+00 7.685380000000000544e-01 -7.778030000000000221e-01 3.499999999999999964e-04 -2.100000000000000087e-04 -1.435000000000000078e-03 -1.558446999999999916e+00 -7.671249999999999458e-01 7.760540000000000216e-01 1.299999999999999920e-05 -4.690000000000000158e-04 1.077000000000000049e-03 -1.558810999999999947e+00 -7.667859999999999676e-01 7.773309999999999942e-01 1.559857999999999967e+00 7.678909999999999902e-01 -7.791719999999999757e-01 1.558859999999999912e+00 7.682360000000000300e-01 -7.784320000000000128e-01 1.600000000000000131e-04 -6.499999999999999431e-05 -1.314000000000000064e-03 -1.558221999999999996e+00 -7.676659999999999595e-01 7.760989999999999833e-01 1.559171000000000085e+00 7.670970000000000288e-01 -7.796619999999999662e-01 4.789999999999999879e-04 -2.020000000000000040e-04 -3.879999999999999985e-04 1.558788000000000062e+00 7.670500000000000096e-01 -7.796199999999999797e-01 1.410000000000000120e-04 1.200000000000000030e-05 -2.900000000000000017e-05 1.559328000000000047e+00 7.669810000000000239e-01 -7.795370000000000354e-01 2.190000000000000106e-04 -2.730000000000000222e-04 -3.999999999999999819e-06 1.499999999999999869e-04 -3.660000000000000059e-04 1.959999999999999937e-03 1.559495000000000076e+00 7.674600000000000311e-01 -7.782850000000000046e-01 1.558688999999999991e+00 7.682999999999999829e-01 -7.783320000000000238e-01 3.719999999999999891e-04 -1.039999999999999936e-04 -9.870000000000000301e-04 -3.260000000000000094e-04 -5.199999999999999544e-04 1.809999999999999977e-03 1.559561999999999893e+00 7.673020000000000396e-01 -7.783970000000000056e-01 1.558616000000000001e+00 7.685619999999999674e-01 -7.782160000000000188e-01 4.510000000000000120e-04 2.629999999999999959e-04 -9.269999999999999811e-04 -1.900000000000000105e-05 -3.099999999999999999e-04 1.480999999999999895e-03 1.559436999999999962e+00 7.677079999999999460e-01 -7.785300000000000553e-01 1.558772000000000046e+00 7.680190000000000072e-01 -7.786079999999999668e-01 4.290000000000000193e-04 9.399999999999999448e-05 -1.224000000000000045e-03 -1.558097999999999983e+00 -7.671280000000000321e-01 7.776870000000000172e-01 -1.558859999999999912e+00 -7.672719999999999541e-01 7.771860000000000435e-01 -1.558141999999999916e+00 -7.670240000000000391e-01 7.774370000000000447e-01 -1.558324000000000042e+00 -7.668449999999999989e-01 7.767300000000000315e-01 -1.558075000000000099e+00 -7.672020000000000506e-01 7.757720000000000171e-01 -1.558453000000000088e+00 -7.666570000000000329e-01 7.765090000000000048e-01 -1.558164000000000105e+00 -7.666640000000000121e-01 7.759089999999999598e-01 -1.558189000000000046e+00 -7.664680000000000382e-01 7.772799999999999709e-01 -1.558103999999999933e+00 -7.670019999999999616e-01 7.757479999999999931e-01 -1.558467999999999964e+00 -7.680399999999999450e-01 7.786490000000000355e-01 1.558870999999999896e+00 7.668779999999999486e-01 -7.796370000000000244e-01 5.810000000000000277e-04 -7.680000000000000195e-04 -5.199999999999999680e-05 -1.558942999999999968e+00 -7.680489999999999817e-01 7.779420000000000224e-01 1.558853000000000044e+00 7.668779999999999486e-01 -7.796469999999999789e-01 4.310000000000000137e-04 -7.579999999999999932e-04 7.039999999999999817e-04 -1.558264000000000093e+00 -7.678329999999999878e-01 7.779549999999999521e-01 1.559050999999999965e+00 7.666119999999999601e-01 -7.791719999999999757e-01 2.420000000000000005e-04 -7.470000000000000511e-04 8.700000000000000051e-05 -8.200000000000000095e-05 -2.590000000000000071e-04 2.144000000000000072e-03 -1.558302000000000076e+00 -7.666990000000000194e-01 7.771299999999999875e-01 1.559282999999999975e+00 7.678920000000000190e-01 -7.791449999999999765e-01 1.558170000000000055e+00 7.681310000000000082e-01 -7.786300000000000443e-01 4.189999999999999931e-04 3.539999999999999853e-04 -8.639999999999999677e-04 -1.558000000000000052e+00 -7.670420000000000016e-01 7.761660000000000226e-01 -5.529999999999999976e-04 -4.000000000000000192e-04 2.139999999999999975e-03 -1.558931999999999984e+00 -7.662989999999999524e-01 7.767570000000000308e-01 1.559765000000000068e+00 7.676180000000000225e-01 -7.794809999999999794e-01 1.558529999999999971e+00 7.682630000000000292e-01 -7.786279999999999868e-01 1.959999999999999937e-04 6.999999999999999929e-04 -9.430000000000000448e-04 -1.558275999999999994e+00 -7.669629999999999503e-01 7.763419999999999765e-01 -1.320000000000000101e-04 -2.620000000000000258e-04 1.182000000000000108e-03 -1.558337000000000083e+00 -7.662679999999999492e-01 7.772660000000000124e-01 1.559015000000000040e+00 7.679310000000000302e-01 -7.794550000000000090e-01 1.558710999999999958e+00 7.680630000000000512e-01 -7.792529999999999735e-01 1.079999999999999960e-04 8.030000000000000028e-04 -1.221999999999999996e-03 -1.558313000000000059e+00 -7.671689999999999898e-01 7.762470000000000203e-01