-1.412880961659999912e+03
-1.412880962599999975e+03
-1.412880964189999986e+03
-1.412880966680000029e+03
-1.412880970129999923e+03
