1.509895645040765060e-02 8.710613032889091487e-03 -9.699250874526317567e-02 -4.680599558010656259e-04 -4.869788913940874481e-04 1.462987845852483553e-03 -1.525805826398910110e-02 8.233382652157733225e-03 2.614626197214168016e-02 9.349455836609086266e-04 1.647018662956614612e-03 1.368014721947672947e-03 -6.580587816164113445e-04 -1.319790545721038935e-04 1.440975075805191706e-03 -2.941049131700129151e-04 -1.769632903138169380e-04 2.572990535142048989e-03 1.898944209307006472e-03 -1.982063329850880072e-06 1.370077355978247457e-03 -1.399102167826959085e-03 -8.319635592606622115e-04 2.492954825111003744e-03 -5.290776559445192718e-04 -1.733062910486022831e-02 2.613122418991792664e-02 -3.913596450173095477e-05 3.047370195265439184e-06 3.338998366249586788e-03 -4.213301452660908700e-05 1.300463800857753886e-04 3.268996443576145574e-03 7.287753124203671658e-05 2.504258964721289748e-05 3.008002615381812853e-03 -5.128878320195090593e-06 4.044876636902125207e-06 3.164999736742511553e-03 6.786726719381774994e-05 -8.195386197817868727e-05 3.258003928565848546e-03 -7.412891587449385914e-05 -4.395506933152416618e-05 3.164997607536431008e-03 2.870449766818862302e-06 -2.195490277972021230e-05 3.181000431116296975e-03 -4.012937010052149302e-05 -5.195493999683798092e-05 3.175999105457251101e-03 3.087746393951427027e-05 4.304265088682756847e-05 3.010000649904464535e-03 -2.811459660561144505e-04 -1.849490092742343556e-04 3.580991176998185588e-03 2.880499219974634243e-06 1.904160947848716572e-05 2.934999850056676293e-03 2.728677438952872630e-04 -1.489542067969759978e-04 3.245013226262564825e-03 -3.612812714728537309e-05 3.390447307424667421e-04 3.152993724856520494e-03 3.187978343443722819e-05 -1.095817220285583714e-05 2.952001456278459564e-03 -9.119788950246592740e-06 1.504171811941182625e-05 2.941999418111009620e-03 2.578719146470447466e-04 -1.789556553619317254e-04 3.142013040878450288e-03 -3.061243213292757538e-04 -1.569565181114910537e-04 3.049989762493147526e-03 3.586786256133952735e-05 3.140460637932094385e-04 3.250997011110787031e-03 -1.999042594044256088e-04 5.269669663271582885e-04 -2.341015613675381021e-03 6.131150629557722284e-04 9.699597228539847326e-04 -2.806988787939446173e-03 -3.970317236807240709e-04 -2.629887155104015484e-04 7.739875618543893632e-04 3.850950176306388770e-04 -4.470335058051980192e-04 -2.341977982834930923e-03 5.212076859044443791e-05 3.995792211691548938e-05 -2.964998446870021395e-03 -4.278780865761460175e-04 -8.900423541297616077e-04 -3.011004807515771115e-03 -1.768979808781810030e-04 -8.703540513388539261e-05 -2.507005971794722902e-03 1.174113682233695602e-03 3.995951053162172663e-05 -2.790952758236818574e-03 -9.918777630012933898e-04 9.395824333662073443e-05 -3.000041725005278635e-03 4.375843811251433138e-03 -7.019492387865304767e-04 3.822188143681515271e-03 -4.384119966664344424e-05 1.596945180400574475e-03 -3.869024430009089955e-03 -4.314336261698577084e-03 -2.484880222204134508e-03 8.209859554358496514e-03 1.561847794797346966e-03 4.119052893189663507e-03 3.817005204213445684e-03 1.180912712645033587e-03 6.480296425430171099e-04 2.156038902130227603e-03 -2.704976133877004096e-03 -2.060062468738953288e-04 -5.901072287345332469e-04 1.641092930813846113e-04 1.019618467311835083e-04 -2.681994765419107481e-03 1.353157847341900869e-03 -8.130562392913928422e-04 -3.891933374548743347e-03 -1.512977243921909349e-03 -2.245007350133302812e-03 -6.020297810091373731e-04 -1.873398906745798516e-06 -4.407719979193961368e-08 -3.109000078551580389e-03 1.812630271003683860e-05 -1.704399361343372091e-05 -3.101999023119086756e-03 -8.874911057034828428e-06 -7.043547139684728294e-06 -3.072000264387589590e-03 2.126816447738964842e-06 1.495584877773444897e-05 -3.114000128329980337e-03 -5.387512245964675420e-05 -1.704344101487277943e-05 -3.067001955052902837e-03 6.112616562395634643e-05 -3.604398474696691979e-05 -3.098997002747771665e-03 2.312724633737148504e-05 -8.044323618615157803e-06 -3.124998947093321662e-03 -3.873272041126041413e-06 5.955881832209413829e-06 -3.112000245057075076e-03 -1.087400185116517950e-05 6.195615668564896715e-05 -3.093001324075449372e-03 1.080141669947692223e-04 3.069950665994518216e-04 -3.419999544035412270e-04 -4.109934335423259680e-04 -2.470020316777097897e-04 -1.660132342079192103e-04 2.960108383502513957e-04 -4.070041164417614334e-04 -2.739821760236283788e-04 3.540177799255063754e-04 1.889935838149151785e-04 -4.329882640134839083e-04 -1.649862424378504167e-04 9.599536544544578739e-05 -3.360080796933819923e-04 -1.779878444692821829e-04 4.419960277681017841e-04 -2.900135146133677507e-04 3.310126341309196441e-04 -3.800466846225474416e-05 -3.109859823541635685e-04 1.101102350997342440e-05 -1.710038933116484784e-04 -2.739971274183748413e-04 -3.259871774413968838e-04 -1.620042532658472212e-04 -3.180109779041699939e-04 1.592006319996700772e-03 -1.235003784230747975e-03 -1.789176627007422180e-04 -1.449886523937594061e-02 -8.385689680105501420e-03 2.108652850422250771e-02 1.289779766171659028e-02 -1.008659423575693735e-02 2.933266824209166887e-02 4.995648595970327878e-03 2.885119222013093464e-03 8.685162530451014454e-03 -2.818017723274857892e-03 2.635009096626075853e-03 4.858478897830324360e-04 -2.292183133528630148e-03 1.622541815152495764e-02 2.936667664701832214e-02 -2.579884928362103291e-04 2.004996742428812647e-03 -2.440389321685178009e-04 8.609814640200121136e-04 -3.750995243685922593e-03 3.830882410875406804e-04 -6.089918492331743670e-04 -3.560024579230923057e-04 -2.070197515221088307e-04 -3.999475165492213902e-05 4.599821655740241787e-05 -1.280022808921755660e-04 2.800931958910631055e-05 4.499674553422830677e-05 -2.279994976035763419e-04 1.500522795153151592e-05 7.199818766778811317e-05 -1.270004098681438976e-04 -1.399597802810911631e-05 -1.200139263858503863e-05 -9.900039986672377879e-05 -1.799713620552071940e-05 1.699902164654158542e-05 -7.000097393222715070e-05 2.700932504996880540e-05 -3.267856034387575887e-09 -2.289989003241418234e-04 -1.199191772435040211e-05 -7.900282615515466348e-05 -1.999993684209798342e-04 -1.099816914520437909e-05 -5.400064356018517556e-05 -4.599968228737352885e-05 2.300375097466445258e-05 -4.600133653924303579e-05 -9.299841115685216928e-05 -2.750179940853613586e-02 1.276165152144479766e-02 4.443369921284798241e-02 -1.894827539574750952e-03 -4.276711557995959215e-03 2.023998349418726361e-02 3.013020026672422191e-02 1.732751871968057564e-02 -1.028140188345257333e-01 -2.646832418752974141e-03 -3.011936814826869299e-02 4.442031928629167070e-02 2.491277289651466298e-04 2.213035634943386792e-04 2.142500702701040718e-02 2.421180474962353942e-03 3.929284508831354557e-03 2.020104290268992520e-02 5.412425913624508762e-05 2.304864602091213456e-06 2.150600219129934071e-02 -4.607820090189728400e-03 4.462892614393066141e-04 2.014780605702684926e-02 4.564182639752288433e-03 1.462810448497463441e-04 2.007518380207019143e-02 -1.385629962812828878e-05 2.322982117254363953e-04 2.103299616183556750e-02 -7.284108964931056086e-05 5.129291291160451613e-05 2.065599632583100045e-02 1.031352976524854578e-04 1.623010265699924119e-04 2.123800191842802401e-02 1.011458019388136487e-04 -9.970270059778322635e-05 2.097500555180483589e-02 -4.086878381488917610e-05 -5.769749958802775986e-05 2.133399917364418169e-02 -4.284851656352568544e-05 -2.070454439006099147e-05 2.083699856808724632e-02 1.241363750827467955e-04 -2.169941518823846494e-05 2.120800538230226476e-02 -9.884207954002616322e-05 -1.207067689794532402e-04 2.067699770564466327e-02 -1.585254251402884497e-05 -1.177031902750282446e-04 2.093400104270310910e-02 2.341511848401011124e-04 -3.770466203371485329e-05 2.084401008877847725e-02 -2.248585501692795536e-04 1.029910002756894821e-05 2.108399071715206033e-02 -2.585780484701552474e-05 -2.570132516314877012e-05 2.106499933101858152e-02 9.615108561559468662e-05 1.992955452404298949e-04 2.085100110916457417e-02 8.312180021530336880e-05 3.430570673749387635e-05 2.156700291845888712e-02 -1.708552384053517242e-04 2.352979660328509697e-04 2.100698972615282212e-02 -4.887677993082982378e-05 2.730531387085443075e-05 2.153199764258341767e-02 -1.238592645223308053e-04 -1.737007805473584038e-04 2.109799743865348881e-02 1.411445457532412397e-04 -2.477023349244392375e-04 2.100300927892184352e-02 -2.757495513485048750e-03 -1.619173928551799480e-03 -1.242008934276271452e-02 5.019067037126363285e-04 -3.983161884548715127e-04 -2.227397393539785539e-02 2.239634633127352090e-03 -1.818223210108691184e-03 -1.561988303632004006e-02 -9.415529926241394466e-05 1.802706466238694627e-03 -2.070902941173733552e-02 -6.409390453876875427e-05 6.956847650112980321e-04 -2.223801249390628884e-02 1.589049391714717884e-04 1.556848456579099994e-04 -2.221999575718094921e-02 1.458843466313862339e-03 -9.662950755644816913e-04 -2.073192691400712814e-02 -9.921681306742057005e-04 -6.462890307347126046e-04 -2.044103125796803769e-02 -4.273622191218667344e-04 2.767779033635483880e-03 -1.560905665806345405e-02 -1.532172114361125218e-04 -3.727243335292450662e-05 -1.922400572856322598e-02 1.459126919881951199e-04 5.396822612615969792e-04 -2.240300173064306566e-02 -1.303680431067717322e-05 1.227664989533716741e-03 -2.363001795841904520e-02 -1.160109886038181073e-03 1.506910391478559616e-04 -2.185604939743312700e-02 4.849118033345446439e-04 -1.783178906793543475e-04 -2.239497774664780949e-02 6.658021492392657541e-04 2.987202759533258228e-04 -1.969297714147870068e-02 -3.781087518042441768e-04 -1.103310310274079140e-03 -2.190799977476382693e-02 -6.271579208662346515e-04 -3.482927901182152584e-04 -2.068602061960314251e-02 1.011962720202657642e-03 -5.733361389450749830e-04 -2.365295068537326406e-02 6.785053299545408317e-05 -4.296184072090780201e-06 -2.088699719557540052e-02 -3.915600729957220412e-05 1.570618233153515291e-05 -2.072600183641140625e-02 -2.814905809941378674e-05 1.017037776624912722e-04 -2.089500260761259845e-02 -7.115069872589629637e-05 -6.929566407300682290e-05 -2.085800193424603918e-02 1.845184490848909117e-06 -7.429428927389046273e-05 -2.075699889082897875e-02 3.684353530527142257e-05 3.706278780786034386e-06 -2.071499857150378363e-02 -9.715298372285081213e-05 2.870517858714477104e-05 -2.080000438246290204e-02 -2.150771555533934058e-06 4.570433859984654717e-05 -2.085400075495382963e-02 9.385140845945925546e-05 -3.029651633886772864e-05 -2.090899576819096883e-02
1.504794604782998257e-02 8.686616688162132616e-03 -9.673751048199731584e-02 -4.680583849019405982e-04 -4.569794301533355754e-04 1.424987420554904224e-03 -1.520005467827754801e-02 8.184381344925108562e-03 2.605726502874419065e-02 9.509460347111723440e-04 1.651018494472523664e-03 1.357015316780462366e-03 -6.330580792213921781e-04 -1.709793293433926767e-04 1.422976646775977452e-03 -3.351039468058760579e-04 -1.909635984766519382e-04 2.548989064098151902e-03 1.903944741024500304e-03 1.017748443526184154e-06 1.357077517061297577e-03 -1.418101709695504791e-03 -8.189637003407947147e-04 2.481953867114132951e-03 -5.180744178258161418e-04 -1.725163021934918856e-02 2.605322351787648164e-02 -2.813638268928328749e-05 -1.095249663832728299e-05 3.348999012658341896e-03 -3.213321187051525793e-05 1.380464431439841673e-04 3.273996737357900803e-03 5.087675913147028260e-05 2.704287625103860631e-05 3.027001691149899115e-03 -2.212944369641452389e-05 1.004508843636699370e-05 3.178998959408447372e-03 9.886677068229133896e-05 -9.195371611650705488e-05 3.270005332678712576e-03 -8.612928548639510505e-05 -4.795493233500877932e-05 3.173997175588905411e-03 -3.129510290938212778e-06 -2.295491225943782870e-05 3.180000200969883631e-03 -5.013008504515748329e-05 -2.895467696887854536e-05 3.193998372143447111e-03 4.387684606397051563e-05 3.404285337571529111e-05 3.025001306861456202e-03 -2.921458705009882437e-04 -1.669490290186819922e-04 3.578990473870940527e-03 -1.202071361401265425e-07 1.041852851811414253e-06 2.951999983078062387e-03 2.858672521001309513e-04 -1.529540468419784429e-04 3.257013812333527710e-03 -1.812807703849271827e-05 3.510447024695309039e-04 3.151994287699608471e-03 8.797537093374361489e-07 3.041866246408998542e-06 2.952999995442456751e-03 8.879432637423066460e-06 9.041973404197788626e-06 2.961000236135248164e-03 2.938715426446118816e-04 -1.859555559489294073e-04 3.151014606065068949e-03 -3.151245405974810194e-04 -1.769564401735326104e-04 3.054989679556109009e-03 9.867709885999217400e-06 3.270461408609803768e-04 3.254995768054014596e-03 -1.779044223060324522e-04 5.269670058124242568e-04 -2.337014717820374426e-03 6.181142814199300142e-04 9.599599883181239839e-04 -2.787988442575218152e-03 -4.280316719641438284e-04 -2.489887054167274271e-04 7.729861010202459084e-04 3.690947514037929062e-04 -4.230333940351114108e-04 -2.334978974641379029e-03 4.512010374206078776e-05 2.295815444432818225e-05 -2.948998490908873431e-03 -4.078786660873760382e-04 -9.020421712993399819e-04 -2.997003822978601753e-03 -1.588985556863112920e-04 -9.303522073807624776e-05 -2.493005153765836396e-03 1.143113528778928918e-03 5.195959151447427157e-05 -2.786954190720083296e-03 -9.828778452340113103e-04 9.295826464534688311e-05 -2.998041344341713897e-03 4.343844540335226566e-03 -7.069494689304659744e-04 3.804186911519829867e-03 -2.784080109082209020e-05 1.585945026095791389e-03 -3.879023622510778275e-03 -4.297335282845368871e-03 -2.482880575782359968e-03 8.185860218279749842e-03 1.558848399343847535e-03 4.111052682872528077e-03 3.802005195486943701e-03 1.159913784725040637e-03 6.650292903615431100e-04 2.130037805994544967e-03 -2.677975564591211430e-03 -2.070064665038258065e-04 -6.041061150807751834e-04 1.611095280060310063e-04 8.996176401460952740e-05 -2.687994717442921452e-03 1.361157394704584547e-03 -8.190560895990081983e-04 -3.880932963725579072e-03 -1.516977103733881376e-03 -2.222007389537023099e-03 -6.050302699783127085e-04 1.812709991320166886e-05 1.295573700543003332e-05 -3.120999448434328468e-03 2.812627138378467144e-05 -5.043987266809654739e-06 -3.100998786044666632e-03 -3.787508645351806991e-05 -2.304346772000176978e-05 -3.068001218451774786e-03 2.212709520844314631e-05 6.955733874050279042e-06 -3.120999200484343272e-03 -3.487504573516625163e-05 -2.304348424678560393e-05 -3.069001096288292030e-03 2.012626666399763603e-05 -6.304399517478871250e-05 -3.101998289500265248e-03 3.812767390624126552e-05 1.795552285586777326e-05 -3.134998704893109112e-03 1.112629333794211193e-05 2.295602604130227473e-05 -3.100999875276512843e-03 -4.187368859590947671e-05 4.595606753777987149e-05 -3.101002359570181627e-03 1.370122389869133164e-04 2.889957102507599595e-04 -2.949985183428075158e-04 -4.309943278170712592e-04 -2.450017041064902969e-04 -1.440140770009196451e-04 2.920099934023841453e-04 -3.940038155773846820e-04 -2.529825232374795056e-04 3.520159929116455999e-04 1.949942092032985752e-04 -3.889884305626692819e-04 -1.589891970669387005e-04 6.699638155165853421e-05 -2.640074242800659094e-04 -1.889892258344252462e-04 4.459965184256985734e-04 -2.560140192853902256e-04 3.150119152733925820e-04 -2.000440073581431384e-05 -2.929868891042565981e-04 -1.498999213874199632e-05 -1.680035185091667657e-04 -2.489982287170342478e-04 -2.919890521953839055e-04 -1.640036277089282064e-04 -2.720095650824666902e-04 1.574009467269912995e-03 -1.220004861828572276e-03 -2.559186082709352466e-04 -1.440585960819856792e-02 -8.318691695288862528e-03 2.094953134147886295e-02 1.282080382397302563e-02 -1.001759630214249346e-02 2.918266412845989255e-02 4.974652776129944581e-03 2.867117778144905472e-03 8.582161930608631431e-03 -2.818014514947805513e-03 2.624007976581351192e-03 4.068480458118689112e-04 -2.268175652717539185e-03 1.610641549567510752e-02 2.918067931164550211e-02 -2.639871271284372585e-04 1.980996265084166916e-03 -2.780388361956949179e-04 8.649815462419479595e-04 -3.749995275173598208e-03 3.810883897950408843e-04 -6.059904561077937221e-04 -3.450029423182320314e-04 -2.410197852833472778e-04 -3.999813305179005695e-05 4.399939331461918550e-05 -4.500225261380529475e-05 6.100398513169461555e-05 4.499857698654773802e-05 -9.699815393726685944e-05 -1.699702577245107465e-05 5.399899250422467373e-05 -7.200145778676512402e-05 -1.199915347171531818e-05 -1.100028833663983047e-05 -2.100033267529369382e-05 -1.100079481833964860e-05 2.500029216634469404e-05 1.999919760795907189e-05 2.000441112990119423e-05 -3.500156103608930959e-05 -1.089986892599300987e-04 5.002758801537124486e-06 -6.500098217630809259e-05 -6.899887477697675959e-05 8.998916959917002676e-06 -3.099963842116080495e-05 2.600080597415797335e-05 -1.499925214952385734e-05 -3.300025762984278184e-05 -1.900014292890996355e-05 -2.727478942665857026e-02 1.271664785597154818e-02 4.418770909470922520e-02 -1.928818123604645511e-03 -4.212714792273474472e-03 2.000998120251527151e-02 2.993617965819722962e-02 1.727052603137423439e-02 -1.023090259267077640e-01 -2.619823015320675574e-03 -2.996737140196225474e-02 4.419231823094655481e-02 2.651342356419884383e-04 1.583012683476978100e-04 2.126400857189279098e-02 2.378190619947213869e-03 3.884280998055884837e-03 1.995104178992508290e-02 5.713169226669659588e-05 3.030228189152391955e-05 2.132400191665370301e-02 -4.601813708776424441e-03 4.312870308289698897e-04 1.999080651416435331e-02 4.553187912314129830e-03 1.192792103520287585e-04 1.994518373706129222e-02 -4.785021576470507078e-05 2.012961116811263476e-04 2.088299521697673661e-02 -7.783883667821364573e-05 6.829213704612652506e-05 2.060099588125589160e-02 1.311421731576549888e-04 1.022985944269369691e-04 2.106800390943569523e-02 1.291498442237990559e-04 -1.377041402973810480e-04 2.087500723083663898e-02 -2.786464673005212037e-05 -2.669894172743462419e-05 2.123299926359846837e-02 -9.284504506419939793e-05 -7.705710354169617341e-06 2.075199634781278030e-02 6.314018646223934787e-05 9.299314036433110542e-06 2.111500245890612915e-02 -1.083726436743670775e-05 -1.077085108642783496e-04 2.055900110487833207e-02 -4.084495509630244498e-05 -1.007058077717757163e-04 2.074799978383275872e-02 2.261598576020852679e-04 -3.870767564005715369e-05 2.063100977738743444e-02 -1.988497819144735643e-04 -2.470398273060116380e-05 2.086799227231670578e-02 -3.384896528380390985e-05 -2.170439548117658615e-05 2.084799894874244178e-02 8.216086959883785678e-05 2.132921535300775573e-04 2.061100034080707091e-02 6.613039859523347163e-05 4.230272853280040086e-05 2.135600211297845538e-02 -1.418463714727371974e-04 2.222948525678838277e-04 2.078899109157108030e-02 -4.867875424110213612e-06 1.030217448355282208e-05 2.131299967552642907e-02 -1.318507413229573998e-04 -1.577037374442330703e-04 2.088899688623675061e-02 1.221529045112309891e-04 -2.337052264969730455e-04 2.079800830692755259e-02 -2.711500730467182336e-03 -1.573172135638657926e-03 -1.229108812190060109e-02 5.308981100241943162e-04 -4.003132196467367940e-04 -2.206297272633379186e-02 2.172629074800750369e-03 -1.792221215292605233e-03 -1.548288613336626894e-02 -8.416062978288199343e-05 1.807708315699421567e-03 -2.057802907553941615e-02 -7.210081299559404104e-05 6.616871673261112956e-04 -2.206901233778623891e-02 1.478963815106235568e-04 9.568781743614734295e-05 -2.201099535463878903e-02 1.518837483434910471e-03 -9.622930384087358515e-04 -2.058492452760376720e-02 -1.041173967009454554e-03 -6.112869507688970449e-04 -2.029703374964532403e-02 -4.523676404578676896e-04 2.760780938857876864e-03 -1.547605757696402483e-02 -1.402262052925041559e-04 -8.226932441235810969e-05 -1.900400456139731548e-02 1.129022314611233095e-04 5.456859307932735836e-04 -2.214600315973664149e-02 7.954013893565684064e-06 1.202668163097274454e-03 -2.340501674904624241e-02 -1.156119825844328843e-03 1.456944953984440328e-04 -2.161204916388772754e-02 5.239028039965554478e-04 -1.783147879234291393e-04 -2.217397615874005384e-02 6.307913574870996137e-04 3.497240746466164581e-04 -1.942697929002170157e-02 -4.421189139389751976e-04 -1.080306715715803091e-03 -2.165800270721925797e-02 -6.011666312296941490e-04 -3.432897764284116213e-04 -2.047201963194876517e-02 1.048952449117405289e-03 -5.853325951102914893e-04 -2.340094900880287238e-02 2.284402475053664571e-05 4.706119609087048744e-06 -2.072699915576230525e-02 -2.815983585123016158e-05 1.470750643144239211e-05 -2.063200137439166054e-02 4.846805561170246071e-06 7.170518378397415580e-05 -2.079400083858549617e-02 -4.515978654694462652e-05 -7.829252278163359078e-05 -2.063500074811133733e-02 -1.315999877201252380e-05 -3.729246277487165433e-05 -2.062900002633798191e-02 4.083996205448815704e-05 1.670752329348282680e-05 -2.062699859301310792e-02 -9.615873711572414098e-05 1.370717687480699920e-05 -2.065900412920667478e-02 3.184346953920813957e-05 2.370631104934131287e-05 -2.071299905866516577e-02 6.384661204452828391e-05 -1.929481987023911802e-05 -2.079099714588159356e-02