1.631239896503050846e-01 2.500488265016047665e-02 7.382880324615852079e-04 -4.452068701018052632e-03 1.548027829017468602e-03 1.716796761996861043e-03 -7.552106388447179207e-03 4.790430873181232324e-04 2.621685682546259864e-03 -2.623079939638250837e-03 5.396031358757953818e-03 2.066816684074372201e-03 1.229873395446749599e-03 -1.821957380358646839e-03 3.074075915674325324e-03 2.308031866923530026e-04 3.470069289975351995e-03 4.899960205122344536e-03 -6.757117067810783015e-03 1.584905037449651707e-02 3.179500142879690319e-03 2.158310271497186584e-04 -1.586941770628080796e-03 4.119031291985448401e-03 5.400801339384597027e-03 1.078406787821782793e-02 5.086067035587713003e-03 -2.611678027044555053e-05 6.104069644664762435e-05 2.868998073747281493e-03 7.287772857764886875e-05 1.704251875904256919e-05 3.003002728808568458e-03 8.773989277968419906e-07 -3.995732561492040656e-05 3.010000605033298724e-03 4.587299873899478313e-05 6.104419869756056870e-05 3.120001005415232783e-03 8.874310430889990043e-06 2.004375980530462867e-05 3.087000080062720243e-03 -1.721328844704948075e-04 3.604641099577516000e-05 3.263992482579913812e-03 -4.613136074024604068e-05 -9.795425476004627444e-05 3.223999513264642989e-03 1.787570749414288862e-05 8.804328488423704738e-05 3.053999482493141310e-03 1.028695835762097972e-04 -3.595468334422181970e-05 3.202004701670575857e-03 -1.512523221708243824e-05 3.204362264025363734e-05 3.075998932639357596e-03 5.287555939470614573e-05 -4.895672832902185916e-05 3.055002850075596091e-03 1.087283816044024860e-05 -9.195575970435444779e-05 3.121001749382324841e-03 6.987443019209614071e-05 1.704366950945546000e-05 3.084002606570717883e-03 -1.712230504136505799e-05 -2.595741076696850017e-05 3.002999673575797255e-03 1.487764559194577112e-05 -3.695742164394119617e-05 3.004001132597501622e-03 2.687518511795688539e-05 -6.956566197402259875e-06 3.065001195858105265e-03 -1.751256502378260274e-04 7.004390387155673664e-05 3.086991878537941481e-03 3.287612015013509565e-05 4.304311718808224405e-05 3.043000731315490068e-03 1.261382001828876588e-04 4.395179607838124134e-05 -3.392995489840224584e-03 -2.098733015960995091e-04 7.195607147835470234e-05 -3.110009569286652925e-03 -3.989801395185792171e-05 -2.330355407452309893e-04 -2.508998323082794156e-03 2.711184535895130518e-04 4.795855877428654952e-05 -2.907989642478721846e-03 5.912682357753112667e-05 2.839558750088121120e-04 -3.109001621064487290e-03 8.812229861396449595e-05 -1.900427015151647729e-04 -3.006993719994740816e-03 -1.568779626215826607e-04 4.795764625064932317e-05 -2.996007070921194882e-03 -8.686541130799797143e-05 -4.404680366636953528e-05 -3.306002915819202317e-03 -3.488664635139849830e-04 6.795379844560260803e-05 -3.278015172617732183e-03 3.865261297781642270e-03 1.641591047333542525e-02 -6.101075350404031386e-03 2.108333598688268552e-05 -1.584029463564203119e-03 -2.076976685354018672e-03 -8.623087425531890740e-03 1.069904011104975960e-02 2.352497174022140716e-03 2.621052710314036339e-03 3.558980565431171719e-03 -1.225943728169715452e-03 1.544193267143903698e-03 2.191932098483567824e-03 -4.703968200290564727e-03 -2.332899767781738617e-03 1.319967289487455940e-03 -2.436113714128929769e-03 -1.349829671726224430e-03 1.028942034778978446e-03 -4.163069558197697410e-03 1.505156952990290096e-03 9.559444354713962687e-04 -3.835952265495004565e-03 -1.140778147627915812e-03 2.359893008710951812e-02 -4.994381038888772405e-03 1.412803022725163289e-05 4.955414048927796005e-06 -3.143999497874244622e-03 -4.487489219643142402e-05 6.895649521831056779e-05 -3.071002807849182708e-03 -4.874601723694249688e-06 2.395635048063794945e-05 -3.079000541008345467e-03 -1.387138792914401299e-05 -3.204477669038025781e-05 -3.159000113466883374e-03 -6.187484210857239261e-05 -2.304353399486620805e-05 -3.074002195746623929e-03 4.128444496107132501e-06 1.395528010002841822e-05 -3.154000032673330740e-03 -4.187332294188549027e-05 -5.904408840738391111e-05 -3.112000870894792229e-03 1.123893901006754615e-06 -7.704315798431932594e-05 -3.043998864761664203e-03 -1.874644797742922216e-06 2.095636230974727806e-05 -3.078000376313431378e-03 -3.399235696607273130e-05 3.599737537050716658e-05 -1.870018947345878865e-04 -1.800743390158399682e-05 -2.899740554438955402e-05 1.819996780106335481e-04 1.060007398394399166e-04 -1.990003948890290406e-04 -2.199286219440049902e-05 -5.999351645840001233e-06 -1.080002504914519582e-04 -1.799871310991947221e-05 -1.299696078913188069e-05 3.299896101876637441e-05 -7.400099716846864301e-05 -3.098813372982074410e-05 7.299591270486626283e-05 -2.900022970535342018e-04 2.300245503488942159e-05 1.189991596669607817e-04 -5.800075052036020887e-05 -5.200205556322762442e-05 2.700076378064172170e-05 5.099749966871880159e-05 -7.100088250382487751e-05 -3.499964667004189803e-05 2.099760502177050250e-05 -2.670860715607126668e-03 9.569538584264301699e-04 -3.402122330350477054e-03 -2.643936601843510734e-03 -1.879020514796752445e-03 -1.593081024431947232e-03 -9.986128798123754952e-03 -1.567439900810628783e-01 1.488156408010011872e-04 -1.694988421926899372e-02 -6.790272199302633616e-04 -2.856680589070099453e-03 -2.873006424916510395e-03 6.840046738820081303e-04 1.708733112455690470e-04 -2.423525805436835615e-02 1.165911200942965076e-02 6.560847825528900307e-03 -1.900061350687306107e-04 6.410024596852936275e-04 1.629831749403808203e-04 3.551985310033245295e-03 3.031003158988351560e-03 4.191016672725954252e-04 -2.600092415964954783e-03 6.883036090160583355e-03 2.401796538008256748e-03 5.899707747844774110e-05 6.400098877583637873e-05 7.300149508549330060e-05 -1.200105873188749452e-05 3.780186333149059884e-10 2.599951132561703995e-05 2.799807664445178032e-05 -1.159993839114068951e-04 4.500278476256153464e-05 -5.002610072462481978e-06 -5.699910287816508753e-05 6.300060446969734567e-05 -5.999989783586949828e-06 6.500001886921953566e-05 9.988341193383338284e-07 -1.000118794822771376e-05 -8.999581013065604222e-06 2.899972036440168601e-05 7.600009940083581961e-05 2.299991213438275892e-05 -1.997231302015685312e-06 -7.800032726917386348e-05 -1.999825503735308640e-06 7.996852121703050794e-06 -6.995939688776684514e-06 -6.700142646960422377e-05 -1.009993350419160720e-04 -2.395015454020357412e-02 1.195042399469510921e-02 2.858185532549246607e-02 -2.157848458666847963e-03 -5.207030442585344103e-04 2.082591953237909396e-02 -4.156192281899364488e-02 -1.441999824983159449e-02 -2.173487994645824459e-03 -1.006172216157374087e-02 1.742593634409364306e-04 1.773758782409685583e-02 -3.718926008414162598e-03 -3.298675578622263429e-03 2.267689535123672273e-02 -2.254806710881244319e-03 -4.171737299628504992e-05 1.980990879225230650e-02 -5.093512810069378212e-05 1.852326128256458898e-03 2.299997168535873951e-02 -1.006907337788463244e-03 4.316697330012893486e-06 2.228195895739941076e-02 -1.684409449038766124e-04 1.356750552526396134e-02 3.564680081676351031e-02 1.931650815756352692e-04 -1.797095070781621847e-04 2.050001043278577503e-02 -8.386787369151535009e-05 2.203022930302601782e-04 2.131699348124514379e-02 -1.098596004871178002e-04 -1.867006780856311136e-04 2.110599819304889366e-02 4.015577078445628484e-05 -5.770611222132041122e-05 2.073100247259367090e-02 -2.078590608484611065e-04 -1.737007856646581355e-04 2.109299401810664498e-02 1.571674277927072316e-04 -9.571027285530906987e-05 2.044400777595506077e-02 5.814574014711631849e-05 -2.270262440332490301e-05 2.097800270911765949e-02 -5.185786516060962500e-05 -1.027013047974862324e-04 2.106499936396424161e-02 3.213119420948830221e-05 -3.369754257137125373e-05 2.133500180599906190e-02 5.014137521311674790e-05 1.929891305830949201e-05 2.108600178778438985e-02 -5.985919008596847436e-05 2.529919767641686091e-05 2.109999722341117032e-02 -9.286172577067044087e-05 -9.269992580509244797e-05 2.115999755254339976e-02 6.414007918678616251e-05 2.829935578490762647e-05 2.111800223024668660e-02 -3.186041800297992289e-05 1.729960108719187981e-05 2.112999847698922296e-02 -1.498577161753845521e-04 1.392987860895360144e-04 2.106599194230114255e-02 -6.286359028492197307e-05 2.230073122760698856e-05 2.120799714368151387e-02 1.143124657749551618e-06 -3.470167239243102537e-05 2.104200055810281564e-02 1.014145120295836783e-05 1.229891602327068070e-05 2.108400025819654605e-02 1.023848116327256584e-03 -7.329611029732879010e-05 -2.082895728822996978e-02 -6.871616799707032678e-04 -9.882916088502975184e-04 -2.060601398915995822e-02 -6.221125784115416136e-04 8.726917520467671833e-04 -2.177603772603481716e-02 -8.814554526224921492e-05 -2.482974938574241644e-04 -2.098800008855999932e-02 -3.361137630121613460e-04 1.926917550231442816e-04 -2.176001643900711546e-02 -3.931298806567391931e-04 4.669737154222137018e-05 -2.136701669050749403e-02 2.830788468157616480e-06 6.777109272959968124e-04 -2.038900951212834628e-02 2.488509518572977930e-04 1.147035607712455226e-04 -2.089499151224776322e-02 3.639071599509596062e-04 -1.271316477291663857e-03 -2.230196717766177311e-02 1.097271887763943228e-03 1.371390821746902404e-02 -6.413149757112999831e-03 -5.411999057906870508e-04 -5.582782968388762300e-04 -1.965901414123431487e-02 4.067993305788796519e-04 2.469722052265753941e-03 -1.958201846820681324e-02 -4.120551872907259760e-05 -7.572767884923139537e-04 -1.952499095955839356e-02 -1.647079532818754473e-03 -2.843319964000863044e-03 -2.265902677951733141e-02 -2.149003331391714008e-03 -2.134533227545788047e-05 -2.447608722934402001e-02 -6.511897316354573612e-03 -1.249379161007852131e-03 -2.710324748168184417e-02 -1.336122683505775116e-03 -4.873045412863031959e-04 -2.155404751917057091e-02 1.007022909755520348e-02 -3.794359257698974976e-04 -3.019058458031224565e-02 8.585470687911670492e-05 2.170235569623026522e-05 -2.098899683112711093e-02 4.985037480348283824e-05 -5.029612744013656277e-05 -2.088399727637638842e-02 -4.414735021154601109e-05 -5.296833621779392850e-06 -2.093900174208462167e-02 -1.514682003114233701e-05 9.970298770499788372e-05 -2.095000204983487810e-02 5.685356752820379329e-05 7.470278955384129728e-05 -2.095999876348021360e-02 2.985325975610507383e-05 -6.297104230324569173e-06 -2.095399871454993110e-02 2.184855024962171685e-05 1.170454665609220564e-05 -2.083799929562431610e-02 1.388517913897209023e-04 4.270333499658311379e-05 -2.091699497072196587e-02 5.085403967825446119e-05 -5.029740422471540301e-05 -2.097399723557187221e-02
1.630439898390877440e-01 2.498588264191310693e-02 7.332850441756496532e-04 -4.463067684555075201e-03 1.546027483185744185e-03 1.691796342446265540e-03 -7.581106026637008354e-03 4.730429824254583828e-04 2.612684586716523989e-03 -2.624079771269046974e-03 5.403031302829063021e-03 2.062816544112895233e-03 1.235873671084771050e-03 -1.833957484299981403e-03 3.067076330139100696e-03 2.218029783941766317e-04 3.464069367911899039e-03 4.904959923696616993e-03 -6.755117160982742480e-03 1.588605041546018587e-02 3.182499699741355662e-03 2.088310757120993301e-04 -1.576941779325911203e-03 4.118030865162785117e-03 5.400800537504972694e-03 1.080006816177212295e-02 5.106066808724905870e-03 -2.711673641448219223e-05 6.504068305144517187e-05 2.867997976316306180e-03 6.787719921087572860e-05 1.704270698536307192e-05 3.016002525192228081e-03 8.877368386776961516e-06 -2.695731770240483629e-05 3.011000746488252510e-03 4.387308331662755502e-05 6.504417190755891682e-05 3.118000867264335979e-03 5.874070026205557656e-06 2.504384722056122076e-05 3.092999887005772140e-03 -1.681325955100648804e-04 4.104630861871893876e-05 3.256992574581007993e-03 -4.613124641346088022e-05 -1.079542972924242431e-04 3.220999655045066364e-03 1.287541540024842414e-05 7.904338804469267362e-05 3.060999406482249781e-03 1.088699030693655889e-04 -4.395480146375516420e-05 3.194005059425226653e-03 -3.212772165923773822e-05 2.504450079741112853e-05 3.136998339572527432e-03 6.487336672798061147e-05 -4.095597212483261456e-05 3.109003225253503290e-03 1.687100336694287182e-05 -9.495512640123760916e-05 3.166002036198890032e-03 6.387166353067224602e-05 2.004463829721466083e-05 3.152002319649107633e-03 -9.124411561652031723e-06 -1.195667978699022171e-05 3.054999800805578616e-03 1.787541142827135245e-05 -2.995664421489037575e-05 3.059001155464582608e-03 1.187293451416844427e-05 -2.095577467230358147e-05 3.120000783482899161e-03 -1.681275265365663124e-04 6.604455056957360827e-05 3.132992220252191727e-03 3.287457432536163926e-05 4.504365594410442120e-05 3.081000702924638172e-03 1.261396316808759480e-04 5.195129985473703960e-05 -3.427995603229796497e-03 -2.198722357938038055e-04 8.095571068472951729e-05 -3.136010104070865914e-03 -3.389596145979052613e-05 -2.120362543350931615e-04 -2.558998376444240625e-03 2.761200416981264842e-04 4.795800192528660108e-05 -2.946989438838211548e-03 5.512807887472770396e-05 2.749554386300477691e-04 -3.140001656319202882e-03 8.812392823113843361e-05 -1.890432686270800925e-04 -3.046993734135319820e-03 -1.648765045004419632e-04 3.795714211499361075e-05 -3.032007254876903628e-03 -9.886363290183394683e-05 -6.104741809169784571e-05 -3.350003163406534666e-03 -3.288642278022396379e-04 6.295300300743856886e-05 -3.333014287260764250e-03 3.870261926612285873e-03 1.643891025675119424e-02 -6.116075472874391884e-03 3.008377607292333906e-05 -1.594029626565909461e-03 -2.087976177078498200e-03 -8.644087905545246378e-03 1.071004029762511606e-02 2.364496162917713827e-03 2.624053043130430106e-03 3.567980449658913512e-03 -1.233943733599596583e-03 1.557193727599537380e-03 2.207931932347256040e-03 -4.714967897753490067e-03 -2.345900084134794773e-03 1.331967413087559041e-03 -2.428114413640593012e-03 -1.364829588704956223e-03 1.030942018168128430e-03 -4.165070197364131865e-03 1.523156966296110304e-03 9.729444213757516748e-04 -3.835951773541663654e-03 -1.142778532111025707e-03 2.362793023045054244e-02 -4.984381531494910984e-03 1.612782348709882688e-05 9.554833723155454284e-07 -3.138999359726135988e-03 -4.187521953278667874e-05 6.695660629188663715e-05 -3.063002657338539502e-03 -8.875499929577360567e-06 2.095666552442300011e-05 -3.057000661378910227e-03 -1.387200030889115931e-05 -3.404456402324819225e-05 -3.144000085125300565e-03 -6.587540827914752561e-05 -1.804333237425055533e-05 -3.060002429531859768e-03 3.127827415748465381e-06 5.955493550761515323e-06 -3.138999959986018152e-03 -3.487368238309001216e-05 -5.004396628910604407e-05 -3.103000713457071923e-03 4.123158572677887917e-06 -8.004290513268881504e-05 -3.025998700082553356e-03 -9.875171811307408839e-06 2.395655288475381705e-05 -3.065000744625615090e-03 -3.499826540491240891e-05 3.099943193433504562e-05 -4.200186470141343160e-05 -1.701044489385377694e-05 -2.599635717083126468e-05 2.559996761294039565e-04 1.179975456067573265e-04 -1.699992842420727465e-04 5.700721522723407728e-05 -2.500515982230677167e-05 -8.899820819170347784e-05 1.250002436834708654e-04 -2.500245730900713196e-05 3.400088441699346400e-05 6.099849987805869289e-05 -4.992446242558910958e-06 7.799739519277064414e-05 -1.840013092987599326e-04 1.799795302300404357e-05 9.000072314235505746e-05 5.199945692826893166e-05 -6.700451839052447376e-05 2.001626195826141593e-06 1.109972432442628341e-04 -5.400451137412661722e-05 -4.099839815658435873e-05 1.099983822600860382e-04 -2.658853294237741895e-03 9.699512686704097426e-04 -3.584122025842001631e-03 -2.633932157011654833e-03 -1.871022068007215274e-03 -1.702080730544217480e-03 -9.905124096088869026e-03 -1.558879915481735934e-01 4.980680311644395075e-05 -1.680087588729184053e-02 -6.990302430427237576e-04 -3.061674237917446067e-03 -2.863999343415679893e-03 6.790021998991534928e-04 -3.126251216203451063e-06 -2.406625039590627388e-02 1.155910918333226400e-02 6.370856125305708779e-03 -1.799994881772209196e-04 6.530001408734781819e-04 -1.658783274507424351e-08 3.536989204358431584e-03 3.012001809666854657e-03 3.231013259265759930e-04 -2.598087806700939348e-03 6.841034472330152598e-03 2.287797215021998738e-03 4.699753714626165110e-05 2.700082804197591438e-05 6.100153102368336658e-05 2.499953637855512986e-05 -1.999986361713867474e-05 1.100130156632167684e-05 5.999591144532558597e-06 -1.579999054374811791e-04 7.002484405227328766e-06 -2.000235084708515838e-05 -3.799917620191034854e-05 5.699972428500231562e-05 1.600019658873090943e-05 9.499994492909833604e-05 -3.000695351122722891e-06 -1.700131245566240617e-05 -1.199953299840398951e-05 3.199947784894547438e-05 7.800018867659191328e-05 3.299988221179160961e-05 -3.997291636088927005e-06 -5.899839068182079731e-05 2.699949326003212385e-05 -3.900278529357515935e-05 -2.999466321933736033e-05 -4.900184797416350319e-05 -1.320005267924166377e-04 -2.367114396555374672e-02 1.193442009001399913e-02 2.832186691369583884e-02 -2.237839343375939809e-03 -4.767061432716436530e-04 2.060291565109671069e-02 -4.129392464687733910e-02 -1.425799777915671800e-02 -2.125479378300027585e-03 -9.932716116999203149e-03 1.452571499458467363e-04 1.758859348838030107e-02 -3.712917782075845965e-03 -3.401678475580110876e-03 2.247289705606110577e-02 -2.276799942609228009e-03 -8.271972345806200401e-05 1.964290847783712463e-02 -2.192848276710834064e-05 1.914323808740471403e-03 2.283797198739268355e-02 -1.058902709673895841e-03 -1.368487822104379978e-05 2.216795709522087141e-02 -1.354341375487661642e-04 1.347250310338724867e-02 3.547780350759623114e-02 1.451694214817296502e-04 -2.537110006887858854e-04 2.039200952743981318e-02 -4.086313211252936314e-05 1.913006005622915084e-04 2.119999564350564733e-02 -1.088539113489292340e-04 -2.537026779310191200e-04 2.096499918381097144e-02 1.915846307875536338e-05 -5.170703151349997142e-05 2.066500153245057203e-02 -1.648544758342846035e-04 -9.070239307714549927e-05 2.098199459245205997e-02 1.231708358592733176e-04 -5.971142299408412725e-05 2.036100588112379345e-02 5.149003343289846323e-06 -1.570371712886337430e-05 2.089800045174257381e-02 1.114720924565116605e-05 -7.070311217609507692e-05 2.094100147580470195e-02 1.375529556587757023e-07 -2.569972925237741713e-05 2.117900038965473547e-02 -7.852031880563636030e-06 1.429666166974174805e-05 2.092399949701443870e-02 -2.885369985043972579e-05 1.629725940206929293e-05 2.096499861348292276e-02 -6.585463174759389094e-05 -8.170241388349077792e-05 2.098599849621272939e-02 4.614916229975837142e-05 3.129620823017000448e-05 2.089500145494537636e-02 -4.285411329083481613e-05 6.029742631532877117e-05 2.097599741955918917e-02 -1.198500559809035059e-04 1.452960971735182006e-04 2.087799307903485946e-02 -4.585564192446600303e-05 -1.970206092698477293e-05 2.101199843158424799e-02 1.915048257768661727e-05 -5.070425266570959737e-05 2.086100151809060915e-02 -3.851173611947048650e-06 1.829636080365125067e-05 2.090299960320630979e-02 1.097836755960072573e-03 -2.029219846168564152e-05 -2.054895502656874096e-02 -6.731781257166651305e-04 -9.812858919836227409e-04 -2.020201351868794459e-02 -6.881267366719494120e-04 8.886967375956870193e-04 -2.142804064077870677e-02 -4.715687039121869436e-05 -2.542935845325506716e-04 -2.070999833419694819e-02 -3.411260818831633084e-04 1.136960264624934823e-04 -2.145901552284786365e-02 -4.171417625527711948e-04 -4.629849809584008239e-05 -2.107701634954550068e-02 7.881934430691435152e-05 7.277148659215409250e-04 -2.010700712649398161e-02 1.878366965045744834e-04 1.627085849353445877e-04 -2.054399467707861832e-02 3.358970416415041414e-04 -1.244312925099447806e-03 -2.205296870087668920e-02 1.068264439717197091e-03 1.356291079219430068e-02 -6.233148797342725686e-03 -5.392095503628407168e-04 -5.502749382681739951e-04 -1.942201417343503503e-02 4.287891996657970293e-04 2.428725551137221866e-03 -1.933401699129033008e-02 -9.921424937079174596e-05 -7.262736948556589500e-04 -1.930999376107829166e-02 -1.572090591685844580e-03 -2.769316152194901178e-03 -2.238602477486177633e-02 -2.136015850672607231e-03 5.965903847619359813e-05 -2.416708784865903917e-02 -6.550910001659954358e-03 -1.276374721173922488e-03 -2.679224868728453252e-02 -1.289133103378358640e-03 -4.813009485721144007e-04 -2.129804569059512778e-02 1.003921377087359929e-02 -3.994305706439438709e-04 -2.981458555945289135e-02 2.585169201957289171e-05 1.970345183305812127e-05 -2.091499924609143898e-02 6.184891511187751883e-05 -4.229562643626383822e-05 -2.084799690118174786e-02 5.850894832996065915e-06 -1.029626312588251512e-05 -2.089599963519322284e-02 -1.215123120510104704e-05 8.270451655962244165e-05 -2.084200168675074197e-02 5.785119320645925987e-05 1.107036252571423808e-04 -2.090099923321369485e-02 4.185048135113097247e-05 3.370386463756916260e-05 -2.088499879307439966e-02 -5.153025328550446074e-06 -2.429489344315856895e-05 -2.079999988472313460e-02 1.598495665890178029e-04 9.704084157940231979e-06 -2.086299364776809592e-02 6.185119312819769373e-05 -4.529642039250175603e-05 -2.090399685859639992e-02