-2.911688234151385852e-05 1.126041024777565350e-03 2.891982852245254809e-03 1.063865679188436171e-03 2.310459961268873641e-04 3.303040048851763489e-03 -9.731400419797350603e-04 2.030495759842305395e-04 3.442957497325272072e-03 1.005859659179698896e-03 -6.439521010799330964e-04 3.434050092463655345e-03 -1.054139169960979262e-03 -6.589508992624050444e-04 3.404966420203765602e-03 -6.712599247422062359e-05 2.050439752501113488e-04 3.097994362381568511e-03 -1.990935107049731972e-04 -3.319673769989137644e-04 2.289996601439318359e-03 -1.313326850341547293e-05 -3.499536851061097169e-04 3.266004429810080625e-03 1.438985257730718596e-04 -2.569648525484695802e-04 2.487009505175860873e-03 3.887289849735687538e-05 3.704423253654385998e-05 3.122001060633739465e-03 2.877039515720640835e-06 2.104281459089141337e-05 3.019999821622133384e-03 2.987901835944416961e-05 4.209874013944914026e-08 2.971001218863696721e-03 8.287432525741062460e-05 3.904370186167367083e-05 3.087002824028196955e-03 -4.912647653771429483e-05 3.044074598907368133e-06 3.105997959257672091e-03 -4.912439732422798163e-05 2.140434082212540790e-04 3.058994967793271947e-03 -4.812800747542090755e-05 2.404461257001797383e-05 3.143997702210165821e-03 -2.212424315751405544e-05 4.704328785262583309e-05 3.051998434949258245e-03 4.587281469915058707e-05 3.404425541146393903e-05 3.124001388211128123e-03 -2.707057465389588104e-03 2.533022818896469089e-03 1.459853855023951052e-03 -8.402074027136611362e-03 6.190325240368145304e-04 1.829649085672166876e-03 -4.157138177624958471e-03 -7.989488524116944608e-04 3.377842048314734849e-03 -6.051574980954918742e-04 -1.182945012544894077e-03 3.844992132604950225e-03 8.878082553640727912e-04 7.410662663522127151e-04 4.723025650002568750e-03 4.639079133591546950e-04 -3.242969186011281091e-03 2.199064870917655408e-03 -1.992605939676860005e-02 -4.938965059007813414e-03 1.363258619026442306e-03 -2.021219018999838996e-02 3.846083099169581108e-03 4.744122418067991606e-03 -3.917145450917264814e-03 1.404054092739915856e-03 3.598820587500643590e-03 -7.591266272248032437e-03 -1.131225260062904830e-02 -1.823614875688918044e-02 -2.018981476034680325e-02 -5.997050315940618583e-03 -4.664737125600885125e-03 -1.623718346696056275e-02 -1.758427636918320422e-02 -2.039041190443311238e-02 4.766939304116730915e-04 -3.735055582573314215e-02 3.135554898906253718e-02 -1.831869370468257709e-03 -1.097044345541680265e-03 -3.229059044591049005e-03 2.130164991359599375e-03 -3.024059938215901185e-03 -4.109870387209747615e-03 -8.874873756483719553e-03 -1.661037455596745850e-03 -3.132337845377038566e-03 -3.658809741489863279e-03 -2.500634445407763900e-04 -4.677145448805637359e-03 -2.714957926365584983e-03 -5.500014022119891974e-03 -1.139032578352899535e-03 -2.687061498099376742e-05 1.895497828311184211e-05 -3.177001365887152217e-03 -1.987746470722983968e-05 7.957354672868697655e-06 -3.009000925041968328e-03 3.212843977144300427e-05 7.955258176740920677e-06 -3.153998807422918760e-03 -4.188217501065638788e-05 -2.704099765122069783e-05 -2.894001324785875490e-03 7.312472787240866716e-05 -4.348374591692637605e-08 -3.062997024530508729e-03 -3.087459151567451839e-05 3.695637083722745197e-05 -3.079001784061399620e-03 2.112589236485457522e-05 -2.104385418406530883e-05 -3.091998844254775780e-03 2.212415703937443132e-05 -1.043245323877077208e-06 -3.048999087129166449e-03 4.512798397070450000e-05 -5.404461021800516062e-05 -3.143997399039815451e-03 2.811661824394414748e-05 9.595940121610019974e-05 -2.862000218220950819e-03 -1.286731116951267156e-05 -7.804620942607078235e-05 -3.259999420475023259e-03 -7.087570661664856382e-05 1.695678495956472637e-05 -3.052003129365273883e-03 -6.587276850168948623e-05 -7.904426810259502654e-05 -3.126001564626935264e-03 -1.587342005161834795e-05 -2.704406623512384510e-05 -3.109000265843882716e-03 -1.787462835441060947e-05 -1.004363933698443295e-05 -3.079000588335452111e-03 1.401253558430744120e-04 -3.004376304836084199e-05 -3.078993870885706353e-03 -3.886875826744366817e-05 -2.045664497403954270e-06 -3.223001556761570952e-03 -2.488348205946662971e-05 -1.360405856173060098e-04 -2.863999087183076182e-03 1.562299928495336498e-01 -9.571201440124786977e-04 1.603753865464304523e-04 -6.181009294562559570e-03 -9.549921828674590163e-04 2.097618439881436547e-04 -7.172367047612283712e-03 -1.363921847642711807e-02 -1.580609870545589962e-02 -9.716216878589789205e-03 4.044084223989111854e-03 5.403547016311539657e-03 -1.371112064672224459e-03 -2.652960632019541517e-03 2.700981782808752150e-03 7.606684467865562974e-03 8.051041200702887353e-04 7.764298343197451567e-03 -1.402882555300585506e-03 3.123961060134565915e-03 -2.824101420062002411e-03 7.301099622417647013e-05 1.820996610875792515e-03 -2.350228448666866351e-04 -2.154086746055775686e-03 -1.470968511552132917e-03 2.101933140822739160e-03 1.619962214468244994e-04 1.100119168848259209e-05 9.300644073603010677e-05 2.600135708690525562e-05 1.699951177313916399e-05 -3.299918224917316426e-05 7.986602078408884008e-06 5.100467240335923060e-05 3.299996023941046330e-04 -1.690012080393758504e-04 2.770006285212633121e-04 3.498919090314492911e-05 -4.008114488817437447e-06 -1.699972180029862606e-04 1.960022471541836731e-04 6.300359682732466920e-05 2.769987738863022970e-04 -8.300136174970339437e-05 6.997731380755867477e-06 1.500078847405507824e-05 5.600007232744829674e-05 8.600490134235054085e-05 7.099824549752476149e-05 -1.189975045173879357e-04 -1.029957382807307383e-04 8.599862032701187028e-05 -1.030054134395745483e-04 2.359989066351504856e-04 6.000021218512868114e-05 2.800875942902673779e-05 -7.900394277881579274e-05 6.100145127449241197e-05 9.799591811808963768e-05 4.100387706510403581e-05 1.099862100548917412e-05 -9.499848631219051014e-05 9.998211409039447630e-06 4.000615992631176618e-06 4.400035045655496964e-05 -7.998930306477002592e-06 -3.800037653267472485e-05 -2.699978698669802148e-05 -1.800090443787809004e-05 4.100034017909089047e-05 2.299868571499698338e-05 -1.300014644251593281e-05 -3.099994728453873272e-05 2.999910136814172083e-06 -1.600027548550379505e-04 -1.379989531500044691e-04 6.499544113475591827e-05 6.700132722714470437e-05 -1.250005486709787432e-04 -3.499549945000584125e-05 2.448088898240707249e-03 1.933153531275956614e-04 2.237809696825348096e-02 1.381182027313678884e-04 2.243069680107245194e-04 2.165900246424511816e-02 -2.225923864712046635e-03 6.232342215919274141e-05 2.268890849599327492e-02 -1.357447225808922357e-04 -4.078741716230745162e-03 1.821005231685429715e-02 9.151139066844790745e-04 -6.069222256902102820e-05 2.175903814491606317e-02 -9.248738253637368758e-04 5.530497897139815286e-05 2.145996157420739653e-02 8.961427234344405534e-04 -7.017024156401354936e-04 2.103904645983558502e-02 -5.158632221792538129e-04 -6.516992259186855018e-04 2.118598825296898538e-02 4.320114076580556899e-05 1.406278488196338562e-03 1.964498183952005303e-02 5.314388271405517331e-05 1.012980600333326936e-04 2.102600074742611361e-02 -1.885457150137983301e-05 -1.087024790371789331e-04 2.098400079289420433e-02 -1.528546785899200791e-04 6.629771093343613669e-05 2.098999285518597310e-02 -2.685323625138865951e-05 3.629710187831175765e-05 2.095399841137958116e-02 -8.385312660374992933e-05 -3.170291019523362522e-05 2.094999705438270118e-02 9.014826635482188391e-05 -7.270354265526920198e-05 2.091500472113163450e-02 1.251481120367598898e-04 -1.137035275226153038e-04 2.091800672764693517e-02 -8.085293399704821828e-05 -9.770299760434070940e-05 2.094399811228322278e-02 -1.857640516339377113e-06 -2.317014573566522617e-04 2.105700322894571777e-02 -9.253331638179974200e-03 7.204124679016178472e-03 8.282521065656736278e-03 -8.752408340536305467e-03 -8.804505204107773014e-03 3.441576845504615290e-02 2.603138779708076382e-03 -1.159702504522410046e-03 2.112712246366230465e-02 9.321609128830408812e-04 -1.133708894681336593e-03 2.058405405100301178e-02 -1.214869721646307747e-03 1.993038166018209524e-04 2.136194772365373334e-02 8.811198868822173831e-04 9.193059891962465429e-04 2.163102286631791646e-02 4.481158943317458711e-03 1.553289743973961662e-03 2.068416047356022927e-02 7.950466395902285347e-04 9.833315765591177718e-04 2.343101845527457983e-02 -3.787125490503108201e-04 7.072485774536739099e-04 1.751197456756038023e-02 -4.852165286077293228e-04 1.281037625351045539e-01 -1.677683600295083385e-02 5.382695870827676303e-03 1.606753940919378914e-03 -1.705780360818809349e-02 -7.219324779438817633e-05 2.170719761925527218e-03 -1.977003373416845802e-02 4.145008905593695892e-03 -7.939356682196337459e-03 -2.492871867235484790e-02 -4.518979695896391084e-03 -8.628354052342225577e-03 -2.522206170905752151e-02 9.648516512035743226e-04 -1.872973259128503972e-04 -2.091795807441241412e-02 -3.109658173402140690e-03 -1.635312103765320171e-02 -8.708894784785120580e-03 -8.722613660805917518e-03 7.263526131974379525e-03 -3.390545820446093372e-02 -3.534129739413248081e-03 -8.039302422521153388e-03 -2.152602995315764864e-02 1.862083789341540720e-06 2.376999119763527953e-04 -2.116600331391097628e-02 6.286564043124530984e-05 -4.301440119189756097e-06 -2.125799739883477493e-02 -3.813346051719240256e-05 -5.230168712103240786e-05 -2.128100083108671117e-02 6.986202094713808361e-05 -5.030019794953356473e-05 -2.116999646169350283e-02 -5.813770719658657894e-05 -1.530018279632617748e-05 -2.117600217017858930e-02 -6.013506193245532510e-05 -6.930111695938402422e-05 -2.124200148595970991e-02 9.386034747990590495e-05 -3.299621278774183064e-06 -2.112799615078700052e-02 -8.138916276118491732e-06 1.047002317312202828e-04 -2.114400183549739604e-02 -2.001407337167405672e-04 1.970099172025180549e-05 -2.110100844883089008e-02 7.984911409963272395e-05 1.597043452716460866e-04 -2.084899903211371794e-02 2.638527247060908944e-04 -1.329710313937965433e-05 -2.094098908663851247e-02 6.385848453260271776e-05 9.701054388386656452e-06 -2.108199755676622156e-02 2.386301006403439900e-05 1.669951197224189458e-05 -2.119299928474142544e-02 -1.001506964010858677e-04 -1.702956697115270881e-04 -2.086000168319475032e-02 -1.001329012191316662e-04 1.936982337997713872e-04 -2.129000684350092557e-02 1.268342500205853836e-04 -1.532906016690838765e-04 -2.048999268092747961e-02 8.386684333318982106e-05 1.796981747966622245e-04 -2.128399915238120971e-02 1.438480606897999693e-04 -4.129539290834681882e-05 -2.082699357626923917e-02
-3.111635767037583181e-05 1.120040842032822689e-03 2.878982855882218379e-03 1.053866127909543942e-03 2.320458480009991243e-04 3.292039627475714259e-03 -9.621395556894987407e-04 2.000493972380309299e-04 3.430957987799080483e-03 1.003860313849091329e-03 -6.399523263590698157e-04 3.418049954325772747e-03 -1.048138476928101937e-03 -6.579511449830039447e-04 3.387966650366911869e-03 -7.112545996568891710e-05 2.090437940703530212e-04 3.084994142799194969e-03 -1.990931849382530927e-04 -3.319674904212766833e-04 2.281996601446755358e-03 -1.613277985084713491e-05 -3.499538528906656057e-04 3.254004307658682395e-03 1.448989361149365649e-04 -2.529649951098226677e-04 2.477009489194953711e-03 3.887338949815746699e-05 4.004406240269707572e-05 3.110001018111603621e-03 3.877367632331792795e-06 2.404270038522991971e-05 3.011999819817130861e-03 2.987926425163121358e-05 2.042013673165646652e-06 2.965001190513747668e-03 8.487469174331193776e-05 3.904357269552309004e-05 3.078002905478265973e-03 -5.212607011039947590e-05 2.043935170043015218e-06 3.095997851282178068e-03 -4.812407782692519078e-05 2.060432940167014940e-04 3.050995121943667326e-03 -4.312751726234079116e-05 2.604443852129120941e-05 3.131997877470049391e-03 -2.312391817353805351e-05 4.604317521335989972e-05 3.043998408413607203e-03 4.087330335337772274e-05 3.404408919290036092e-05 3.112001184618027987e-03 -2.695057723045329607e-03 2.516022894569001044e-03 1.465854584690566087e-03 -8.360074110963846075e-03 6.160325195068691367e-04 1.831650838479344972e-03 -4.134137768084913782e-03 -7.959490121988621516e-04 3.367842942370316128e-03 -6.051572091317443045e-04 -1.177945111789965643e-03 3.837992061722640159e-03 8.888089061131101542e-04 7.400660387245916200e-04 4.707025704916057915e-03 4.599079282503685650e-04 -3.223969182881211617e-03 2.199064438656745182e-03 -1.980505977821943320e-02 -4.905965011975721608e-03 1.373263078373937116e-03 -2.008918919088516566e-02 3.822082648418589305e-03 4.719127767022242639e-03 -3.896144927832350269e-03 1.396053891986463171e-03 3.585821556072709901e-03 -7.549270062430301666e-03 -1.126425130080696210e-02 -1.814214772723346178e-02 -2.006681586458795852e-02 -5.951050015275513756e-03 -4.636732769139346143e-03 -1.613618803242989480e-02 -1.748627483200702881e-02 -2.027640918115394472e-02 4.737015124260636413e-04 -3.713255840376488565e-02 3.117354577631673701e-02 -1.821869894362457189e-03 -1.090044169061007463e-03 -3.216058736638966777e-03 2.115164232563976430e-03 -3.005059657094762311e-03 -4.090871267417682013e-03 -8.835874320339240015e-03 -1.653037287645267410e-03 -3.118336370698967380e-03 -3.638810678085771695e-03 -2.500631341114061381e-04 -4.654144634409995707e-03 -2.698957820646396850e-03 -5.469014063006546501e-03 -1.141032366328089982e-03 -2.287114278808453989e-05 2.095515946226531384e-05 -3.164001231371359191e-03 -1.887791342087285316e-05 6.957509845722347913e-06 -2.998000870153579196e-03 2.912795347457153468e-05 1.095543065897131492e-05 -3.141998972129917377e-03 -3.988254071630181356e-05 -2.604087161715555490e-05 -2.885001257530302957e-03 6.812419693848854787e-05 -2.043295519394801988e-06 -3.049997199791322413e-03 -2.787499951013631307e-05 3.595651026629343100e-05 -3.069001647730378902e-03 2.312544286680867842e-05 -2.304369979410700653e-05 -3.080998734467771914e-03 2.012366604023263397e-05 -4.043073624037971980e-06 -3.036999126048733812e-03 4.412757754670726282e-05 -5.304446765715618693e-05 -3.133997453947725675e-03 3.411629325582114634e-05 9.695950994038534645e-05 -2.853999988081044794e-03 -1.186788047852874510e-05 -7.704601172003265304e-05 -3.245999393944950292e-03 -7.687599165755225556e-05 1.695688890210920541e-05 -3.045003373696887790e-03 -6.487305276482546832e-05 -7.804416964112444448e-05 -3.119001538090354544e-03 -1.387391418837169379e-05 -3.404389766686611836e-05 -3.097000085168991577e-03 -2.287503947653115826e-05 -1.504349364354596521e-05 -3.069000721060186499e-03 1.431249110456400588e-04 -2.604360944200355768e-05 -3.067993805444432266e-03 -4.186932522242168110e-05 1.954536340316352607e-06 -3.209001735648192490e-03 -2.488393077228024267e-05 -1.370404296614562102e-04 -2.852999073015538654e-03 1.551579903680186390e-01 -9.551184397952839841e-04 2.213317053818009963e-04 -6.158011498208438607e-03 -9.609914352748160976e-04 2.637628655841018580e-04 -7.112371566058179641e-03 -1.353321692132669618e-02 -1.569309776515280183e-02 -9.663218475365815616e-03 4.033084735425444649e-03 5.442549330435792962e-03 -1.381115630859234894e-03 -2.630959376545805375e-03 2.788981063607639827e-03 7.583684355124999110e-03 8.171041806113765781e-04 7.767297236481924584e-03 -1.392885823971090967e-03 3.057962172357091713e-03 -2.745100077194540574e-03 5.700970333204052594e-05 1.781997062919319069e-03 -2.040229434963468250e-04 -2.131087193220518837e-03 -1.469968373605396285e-03 2.112934063214325607e-03 1.699999434916735382e-04 3.199989524301824999e-05 2.006468854399679344e-06 1.600376667692130907e-05 2.599868311226698938e-05 -9.199971700270922397e-05 1.098712517825293407e-05 4.300448574383753108e-05 3.169998379908505306e-04 -1.409974766332142799e-04 2.579993022421129233e-04 -5.700939944999487328e-05 -3.004289864979716265e-06 -1.739985514983433004e-04 1.020023446734709069e-04 4.100606592891590472e-05 2.579979262686158889e-04 -1.440019881742166000e-04 1.500079797429731542e-05 3.099971887382061146e-05 -1.899982868023836400e-05 9.800563352394443958e-05 6.999798090135515047e-05 -1.369970016726783021e-04 -1.209947640999351940e-04 8.199829415425719599e-05 -1.270060896815304141e-04 2.089986035894740091e-04 3.700033257291110298e-05 3.500798604809914126e-05 -4.200415895087944261e-05 4.500149319422444495e-05 1.029976516291484438e-04 3.000434535139691021e-05 -1.500154051247636949e-05 -1.069985656085474599e-04 -9.002433056480750530e-06 1.300085771337664731e-05 5.999944914563897462e-05 5.001212218171496782e-06 -1.200042924763193933e-05 -2.999962623469486006e-05 -9.002003124449508802e-06 4.200071593249947991e-05 4.999903799979441238e-05 -1.200165624871970220e-05 -3.499942348870319948e-05 4.000000753432401837e-05 -1.430022043417334592e-04 -1.109991507750007327e-04 5.199575060169605878e-05 5.100113930768479466e-05 -1.050004652560796386e-04 -2.999643454354104495e-05 2.509096912384842747e-03 2.353125265127048536e-04 2.218209885694153588e-02 1.101296304477193412e-04 2.573030201485884314e-04 2.137900085645537754e-02 -2.259916588165679623e-03 9.832092512985818496e-05 2.251090660125031756e-02 -1.107378235410485682e-04 -4.056744131855282050e-03 1.804105302312188075e-02 9.181226005438612248e-04 -1.386952731361492633e-04 2.154403937314403050e-02 -9.538643381925163232e-04 2.301684079514690969e-06 2.122596114494170252e-02 9.311501659412331402e-04 -6.617050234077895493e-04 2.085704731812402374e-02 -5.538557670997205657e-04 -6.477017907017862570e-04 2.100298664903570492e-02 4.020713846039642429e-05 1.369276392235343380e-03 1.949698224207233044e-02 3.414710748692822257e-05 5.929694069086467723e-05 2.094600056927037671e-02 1.475028949816863903e-07 -1.117032169813669942e-04 2.093300160917107786e-02 -1.528512846808576810e-04 3.229652000205320743e-05 2.090599333730801604e-02 -4.085173583728453616e-05 2.829658826263599240e-05 2.091699795474416881e-02 -4.985069902803726917e-05 2.962266897446730453e-07 2.089099798525805365e-02 6.115072765146537697e-05 -4.970437061842113591e-05 2.085500321419416631e-02 7.815019510717014124e-05 -1.057042137901659934e-04 2.086700470039223529e-02 -3.685067636515098780e-05 -7.470381183723520668e-05 2.088899957796324161e-02 -8.852507333971680381e-06 -2.287032382781973802e-04 2.093100290148360368e-02 -9.240330429127713990e-03 7.136124229332426946e-03 8.251522559144535210e-03 -8.700402369478868816e-03 -8.771507314785024004e-03 3.426977010479993757e-02 2.636143507216014929e-03 -1.154704174986049192e-03 2.101112373666940564e-02 9.181671165666570496e-04 -1.115711038746100428e-03 2.043205322585265118e-02 -1.230865704349217446e-03 2.333024397023862194e-04 2.126394659016726113e-02 9.021247882534977639e-04 9.383042714159683072e-04 2.151102345218983483e-02 4.438164364684877433e-03 1.508287877822754456e-03 2.055015936068755114e-02 8.040520742352678680e-04 9.553296696903964408e-04 2.329701921886418239e-02 -3.917079021623263795e-04 7.132469713633476753e-04 1.739797395322870838e-02 -4.502226739404523951e-04 1.273287644359580029e-01 -1.664082359008078188e-02 5.366684996025944052e-03 1.603757738918981917e-03 -1.679080421743662371e-02 -1.592031961443689627e-04 2.154723289429874046e-03 -1.952603705026511455e-02 4.139001039449370645e-03 -7.896353927010395582e-03 -2.473471952650412725e-02 -4.481988756301490302e-03 -8.602350919667338738e-03 -2.499906057121517935e-02 9.318429846942209108e-04 -2.822943085495785106e-04 -2.070695807150911907e-02 -3.040661769355522490e-03 -1.621311980151467561e-02 -8.617893960017873958e-03 -8.685627340688128334e-03 7.266530866742461868e-03 -3.356945674063507856e-02 -3.561136491973153958e-03 -7.978300033694582516e-03 -2.135903191761944278e-02 -1.014687481048948096e-05 1.857030263147334129e-04 -2.094700306552106997e-02 5.785737097057604735e-05 -8.298558111346997880e-06 -2.105499754591668576e-02 -1.714185216194609741e-05 -5.629878293770361740e-05 -2.107499991942927975e-02 2.785339835034581830e-05 -3.729715937238855573e-05 -2.095799835647724901e-02 -1.814656321640091129e-05 1.170287664049485801e-05 -2.095800092434681183e-02 -5.314613014602803084e-05 -7.297251908473262750e-06 -2.096900208018886991e-02 3.584945860868484326e-05 -2.429579039151811813e-05 -2.086099821511153488e-02 2.852615347182712093e-06 1.067031720994964764e-04 -2.093600141611691792e-02 -1.621519437328632323e-04 4.704860861634936590e-06 -2.082600668902773525e-02 5.784382432654548793e-05 1.647062056104546654e-04 -2.071899999898211067e-02 2.618496307074823139e-04 -1.229602406104054961e-05 -2.086498918232862834e-02 9.285562778116142400e-05 1.702024127980049233e-06 -2.101199626250450231e-02 4.385714232861732015e-05 1.170153791535513731e-05 -2.104899839956944629e-02 -1.061553667555349884e-04 -1.542940345686963453e-04 -2.074500215447097617e-02 -9.513609936387588365e-05 2.176993499282048382e-04 -2.121100698023643122e-02 1.198305334599213340e-04 -1.672893060073213877e-04 -2.039899276756933916e-02 8.886336011758422357e-05 1.516993759971100328e-04 -2.119899855187859158e-02 1.498439486635558954e-04 -4.029396564909288242e-05 -2.072599334621579026e-02