-5.163753547259305328e-06 1.626411013729335553e-01 7.148693904120117550e-03 -5.831331591822104922e-04 2.907047611541078037e-03 3.325935041893555381e-03 5.818671256809918903e-04 2.908046600105887794e-03 3.318982467513849951e-03 9.659296867478270364e-04 -5.076977660233819752e-03 1.629111315332985779e-03 -9.730707705432351537e-04 -5.090975986047113072e-03 1.640032556081133649e-03 -1.149790713163069162e-06 2.350522175796281954e-04 3.682996624081023417e-03 2.094898730112309572e-03 -5.138967783283549494e-03 2.388158167489666268e-03 -1.021210612809168477e-05 2.190739166551123240e-04 5.212996483015292816e-03 -2.089101301653306392e-03 -5.131964493050544113e-03 2.388987692203320672e-03 -1.258719868673604416e-06 -2.590992768044020591e-05 6.353000321995260456e-03 5.998716736472888608e-04 8.130444311982620636e-04 3.167012903044932968e-03 -6.071284937199996354e-04 8.060454329865093023e-04 3.170963852218261405e-03 -1.026130327677204261e-03 1.800462289922536839e-04 3.203955665430896667e-03 1.022869867175393594e-03 1.710445537450606534e-04 3.199039230059354255e-03 -6.142945889877261862e-06 -1.759502737559414125e-04 3.507002247701162048e-03 -3.561311204506791440e-04 -8.829543096858036158e-04 3.202998019364640403e-03 -6.131497748894381622e-06 3.904579897306848787e-05 3.229999199739515183e-03 3.528686362033831578e-04 -8.809547797635075431e-04 3.209026862086977565e-03 8.877944747125018630e-06 -1.895751619234641662e-05 2.997000633079159506e-03 -1.311836917756168358e-05 6.004123920181758390e-05 2.907998617259855388e-03 -5.118768556862129495e-06 7.004137471479385062e-05 2.917998801239733622e-03 -7.411948269397135422e-05 4.204166976687250998e-05 2.934996388462580725e-03 5.988022744756803202e-05 3.604166409056002514e-05 2.942001930116703787e-03 -1.118691844921947121e-06 1.204132905527020463e-05 2.914999786436207972e-03 5.878128789457416243e-06 8.042429442738690802e-06 2.993000128120711090e-03 -8.121482087665025904e-06 -1.709577438886096025e-04 2.980002095860540684e-03 -7.122368469148876690e-06 -2.957390243657997344e-06 3.004999754693889365e-03 1.551163072847678182e-04 1.669594293685890216e-04 -2.852996053302431917e-03 1.512370128020523452e-05 -1.104308388614687507e-05 -3.037999230407715037e-03 -1.598843463381318145e-04 1.639599028574064115e-04 -2.837008837852116917e-03 -5.853285942756521093e-06 -4.051077898313500586e-06 -3.603000184264709693e-03 1.991210134522296120e-04 -2.190423489131582612e-04 -2.975988788853943696e-03 -1.808795226556798852e-04 -2.280418670623719953e-04 -2.963004135189581303e-03 -2.788779851598227177e-05 -2.400391087671153740e-04 -2.759997734954907408e-03 4.411217167348972833e-05 -2.260391509664545968e-04 -2.758995001543245330e-03 -6.882809993175762430e-06 2.539592726492883993e-04 -2.873003883527142348e-03 -1.191490664131838670e-02 9.508327590808000190e-03 2.244738002873712321e-02 -7.834852471508666372e-06 4.989426428536247651e-04 -4.046007396709624254e-03 1.192709362160221387e-02 9.505308823369383597e-03 2.244135093780924572e-02 1.436957249873752472e-05 -2.113478627934919224e-02 1.507530024382995083e-02 -1.035799176535791202e-03 -1.731069581395456095e-03 -4.965017640477738942e-03 1.030201514788522043e-03 -1.730071440088136415e-03 -4.981933525361292685e-03 -3.108233653502070126e-04 -1.720613022805276941e-04 -4.341010221573994576e-03 3.171763749159935012e-04 -1.910617089334259804e-04 -4.334984379507565190e-03 1.121407544911642945e-06 1.478958132038195967e-03 -2.953020925446212495e-03 2.931164064593116329e-04 -1.740408062506620251e-04 -2.861985599199268811e-03 -5.871384801485267341e-06 -2.804478295475275668e-05 -3.158999844411128268e-03 -2.788831921264592795e-04 -1.820405001540079842e-04 -2.872008778094703799e-03 5.119948093926026990e-06 3.439583275097675722e-04 -2.939004670814287633e-03 -3.138789767194062738e-04 -2.070419472373400099e-04 -2.976009848783728144e-03 3.211211558864734386e-04 -1.930424869746965016e-04 -2.978984189529168460e-03 3.413121894837899470e-05 -3.104572165319980872e-05 -3.222998172984299116e-03 -2.886861184742085459e-05 -2.304572903642992612e-05 -3.227000851816308295e-03 1.124237864786273045e-06 3.099568277988712915e-04 -3.045004351555196439e-03 3.199357234932529299e-05 8.002215034983906189e-06 1.580011894982514349e-04 -4.000816683347608455e-05 2.300288105439558272e-05 2.009980448905463065e-04 -8.993586522686899446e-06 -1.300022613871871971e-04 -1.599985232296735724e-04 -1.800156299849833529e-05 8.400058119727716308e-05 3.999807605536472309e-05 3.899767807121794151e-05 -5.299923657496673457e-05 5.600233948259979741e-05 -4.002842569785689733e-06 1.140010239217582731e-04 7.199822078462918328e-05 -2.099313853353133671e-05 -2.600237960187600769e-05 -1.690004863589211694e-04 6.099788635861211588e-05 -4.699932469046384152e-05 5.100315027939155072e-05 -2.500205093414313923e-05 -7.099928570596568346e-05 4.899998855437793328e-05 -1.361056616994069579e-03 6.030209428660781917e-04 1.401936028426962718e-03 1.354945560114284575e-03 6.300180648226424637e-04 1.349046243508250469e-03 -5.107386147110059486e-06 -1.005961718120124831e-02 2.700114244031699001e-02 -1.860377707968107266e-02 -2.065572050555599184e-02 1.868553530851838063e-02 -2.957778130474945719e-06 1.291985654289832435e-03 -1.012018438892199439e-03 1.859622561776152691e-02 -2.065575058292528146e-02 1.862005012424220243e-02 -1.899651218461922628e-05 -6.722003032671420956e-03 -2.149054705702810276e-04 -2.199029339111862203e-03 -1.638988509525217884e-03 6.889336915622240164e-04 2.212971684652706699e-03 -1.626992318550351526e-03 6.641131818474288549e-04 -1.239902385492286938e-04 1.929967511123609951e-04 -2.360077854745024084e-04 1.060102287536052743e-04 1.659964008924226801e-04 -2.479980368679768040e-04 1.800405032886483709e-05 3.879986815097809217e-04 -9.200476791138211495e-05 -3.249974759218630005e-04 -2.090006812396737331e-04 -6.601027106269476434e-05 -2.899213054246327942e-05 2.729973572538387373e-04 -1.880050512593444117e-04 3.470027380950089493e-04 -1.950012783034786362e-04 -7.098310513478494623e-05 2.006792467944277294e-06 -1.660024117744693405e-04 -1.699975648915304899e-04 3.250089229794965993e-04 -2.010034161018535751e-04 -2.229839157856297594e-04 -3.279912370115447466e-04 -1.980028480944847149e-04 -2.190105490384177084e-04 1.340756851485220939e-02 -1.776786511750758427e-02 1.025479788614095354e-02 3.518062584772284031e-05 -7.137149410067185687e-04 2.010801157018139371e-02 -1.345243005172004624e-02 -1.773384456827930764e-02 1.021970364206761100e-02 -6.650947925245529000e-05 -3.923348509268919510e-02 3.631455356975911430e-02 -2.151890803285104719e-03 -1.397688544983443151e-03 2.184893220965178004e-02 2.219110323086653618e-03 -1.410692364436600321e-03 2.182111038482896503e-02 1.535156828445384102e-03 -1.356708005737182737e-03 2.068008176722824568e-02 -1.559843230031411013e-03 -1.278705539838557526e-03 2.068295463032570128e-02 2.821177134563054780e-05 -3.319726490166251612e-03 1.929304823314465303e-02 2.780909321369977316e-03 -1.518622851227230050e-03 2.675513479655911020e-02 -3.781280522451882059e-05 -1.257170105765808329e-04 1.995800026117378057e-02 -2.746091836169506448e-03 -1.546618126626383462e-03 2.678291012936633714e-02 4.893492129537530542e-05 3.190371659789641330e-03 2.621695678460581394e-02 -1.188880488849360746e-03 -7.056927017493901024e-04 2.160896161304218938e-02 1.155118962621969883e-03 -6.756943386062687958e-04 2.162305663737128930e-02 1.961913732563782447e-04 6.228140258162514977e-05 1.985900712452544348e-02 -1.948092317718933691e-04 1.728190722679372941e-05 1.987299184065899338e-02 1.114187546512393557e-05 1.281299113601479852e-03 2.109798230732254365e-02 8.813308380170696576e-05 3.930177557269343142e-05 2.129000305143182586e-02 1.132230253408872425e-06 -6.269788691824632401e-05 2.130900095483198933e-02 -8.686831074816374180e-05 2.630239464337361701e-05 2.132399610956219743e-02 7.135227944104890242e-06 -3.069892659851074587e-05 2.123600074553652628e-02 -1.287132731097545339e-05 -2.969662831363496479e-05 2.139699991679207269e-02 1.512750743291075467e-05 -9.696239083478026450e-06 2.142600077339367956e-02 7.212645726310299940e-05 1.304084907311604284e-06 2.145200293850262063e-02 -1.318750523730737262e-04 -2.695230782640900391e-06 2.148899468812565453e-02 1.812876735079849659e-05 -1.686967234614797958e-04 2.139200314985223103e-02 -6.613403162826866260e-05 1.037698830915813244e-03 -2.124601742506525628e-02 4.609080087304075093e-04 3.316835883740619712e-04 -2.229198595470334790e-02 -4.110931949329392184e-04 3.536846964783529608e-04 -2.226202177522420764e-02 1.058835765221621469e-03 -3.492919126913520745e-04 -2.053095195021448563e-02 -1.108162894678362421e-03 -3.562906838052234287e-04 -2.056404009302383040e-02 5.084887657601215328e-05 -4.032957028536853753e-04 -2.085399223093292384e-02 -5.861222402163775071e-04 -7.003053411788777091e-04 -2.156901395865467100e-02 7.857871515653763622e-06 2.147013675936169529e-04 -2.106300274359305599e-02 6.018789271904610456e-04 -6.643066683602103081e-04 -2.159696609265700229e-02 3.974761362264568734e-05 1.098650954380969063e-03 -1.656830141119108313e-01 -3.616073861960741962e-03 -3.611320605584494772e-03 -2.281309607020768140e-02 3.575928442192064568e-03 -3.625327045025772844e-03 -2.286980300730477589e-02 5.847824784052135447e-03 1.699708718272261625e-03 -2.022178598858307558e-02 -5.820174696488840567e-03 1.674717669962589792e-03 -2.023526076501773463e-02 -3.419627188580527449e-05 -2.208280409164827419e-03 -1.977997010234059522e-02 2.197824069516830358e-03 2.810712129030248658e-03 -2.018295037122111793e-02 -1.619781024866415352e-05 -1.313279643570239297e-03 -1.972498205851470898e-02 -2.174175259677104451e-03 2.778715311270146555e-03 -2.020012794907796727e-02 3.485920110171361635e-05 4.070083606962884604e-05 -2.109899917716576839e-02 -1.951320429683297284e-04 -1.030204623991236155e-05 -2.131500781969479508e-02 1.548675565851414940e-04 -1.302178511520607496e-06 -2.130499369500607129e-02 1.578642174238096879e-04 -1.053010466263956294e-04 -2.122499209843048407e-02 -1.731363759006235932e-04 -1.353005889625085736e-04 -2.121100515171231438e-02 -5.150892173400111659e-06 -4.295630690533685126e-06 -2.085200016823006777e-02 -5.913367178982202452e-05 2.496984852471908112e-04 -2.127000596791937814e-02 8.419512151807691184e-07 1.647069024198222773e-04 -2.067300232011338654e-02 5.886749021090540785e-05 2.256979816999983286e-04 -2.129900082256565991e-02
-2.163080126212319182e-06 1.625651011153918801e-01 7.130695103809426595e-03 -5.841328780533685226e-04 2.902047513080010382e-03 3.318935072068028916e-03 5.758672032097807971e-04 2.903046576448778740e-03 3.316982294079420107e-03 9.799300015329065645e-04 -5.090977784616717954e-03 1.621112083921026886e-03 -9.860699561156525874e-04 -5.090976259424070428e-03 1.620032026728660934e-03 -2.150405442801275202e-06 2.300524310300588798e-04 3.697996654235045314e-03 2.109898321324321559e-03 -5.140967653250335528e-03 2.398158806648664158e-03 -2.212146071993408612e-06 2.200739245688376332e-04 5.213996794603408501e-03 -2.116101676737780404e-03 -5.142964344308379419e-03 2.397986748687372036e-03 -3.259326761747539881e-06 -2.090971344802150232e-05 6.368000169650797279e-03 5.868711513393122699e-04 8.220446256876445638e-04 3.180012246061912455e-03 -5.921287638904243651e-04 8.250455204842191458e-04 3.177964193647014792e-03 -1.030130203160646270e-03 1.830461895905497979e-04 3.200955460016990765e-03 1.024869673755990319e-03 1.840446230667346149e-04 3.204039127185483171e-03 -3.142324893309958953e-06 -1.629504887731708933e-04 3.492002185566733981e-03 -3.631310523239425318e-04 -8.999543325587073617e-04 3.200997975342520421e-03 -3.131924549119873413e-06 1.404593840455393968e-05 3.239999676336859265e-03 3.588689470772305303e-04 -8.999548978819319010e-04 3.201027375797026696e-03 -8.124139053777145066e-06 -2.795677981294093393e-05 3.048000068377151959e-03 3.879803071978923094e-06 6.604186389106941175e-05 2.952999224405911376e-03 -4.120077109586303950e-06 6.304182762195499937e-05 2.949998941175181744e-03 -8.112164089268616854e-05 4.204242667099984996e-05 2.987996103367354314e-03 7.587840204865850622e-05 4.504228956250557186e-05 2.987002454008618347e-03 -2.120354346371629611e-06 2.104191112696894724e-05 2.955999618077371788e-03 -1.012359087543450755e-05 -3.956962560707821500e-06 3.034999646681211648e-03 -1.230247847797363273e-07 -1.649572113969599140e-04 3.018002336525443894e-03 -1.123343423565090383e-06 4.294532515134979861e-08 3.028999956463395132e-03 1.521173370618586289e-04 1.819590772711812720e-04 -2.877996388108196909e-03 -8.749494337895795934e-07 -4.043539226161047334e-06 -3.070999981155000599e-03 -1.448824575204625282e-04 1.839592389318611449e-04 -2.883008510551858007e-03 5.147443105372846990e-06 -9.051341711083698142e-06 -3.620999665429797381e-03 1.851219014865865839e-04 -2.290426498617019609e-04 -2.997989217147773236e-03 -1.808779321921989984e-04 -2.250424199966935697e-04 -3.002004177686617547e-03 -3.588646177378807981e-05 -2.490395703694857983e-04 -2.792997933091168321e-03 3.711357731935874331e-05 -2.510396417057988972e-04 -2.793994932112580428e-03 6.119263624588668609e-06 2.499585394031781510e-04 -2.924003297397614453e-03 -1.192090786999077355e-02 9.499328020840745387e-03 2.247737991198400440e-02 4.165549241924236163e-06 4.919424916804229254e-04 -4.056006808805769775e-03 1.192209219167551966e-02 9.499309323507808267e-03 2.247635081923903336e-02 3.692310721592937067e-07 -2.115478615496286727e-02 1.508329995728586656e-02 -1.009798603331301487e-03 -1.727069800242894649e-03 -4.979016638433649000e-03 1.017201150662464405e-03 -1.727071302309330508e-03 -4.972934097274013532e-03 -3.198233207040348928e-04 -1.670613094118616972e-04 -4.342010658949542815e-03 3.241767226169654727e-04 -1.630618278395847139e-04 -4.342984491431546752e-03 4.120833532795847258e-06 1.473958328178846984e-03 -2.939020732407856672e-03 2.861164385666490847e-04 -1.850408149463753874e-04 -2.862985728288898989e-03 5.128691929630431764e-06 -3.404481992269632861e-05 -3.160999311413326390e-03 -2.828838052864623455e-04 -1.850402843547904502e-04 -2.857008898458762106e-03 2.119580041707150454e-06 3.419584574591159518e-04 -2.930004764629680260e-03 -3.288789704383773393e-04 -1.990419354932041764e-04 -2.976010573018602473e-03 3.351211057511400146e-04 -2.050424837576375516e-04 -2.977983449305021159e-03 3.513134581151055046e-05 -2.504576497018692129e-05 -3.225998217327239858e-03 -2.686881780400017273e-05 -2.604565971314298277e-05 -3.222000727845964092e-03 -1.875748811976246155e-06 3.269568301461459351e-04 -3.045004714739728800e-03 1.899255825697465143e-05 1.300257965831395651e-05 1.830005892151296252e-04 -2.300711515789696993e-05 1.400249912168878926e-05 1.749988647690560537e-04 -9.937243383305591541e-07 -9.800221094320097758e-05 -1.559986511550139890e-04 -4.500456534823656644e-05 9.800165149361889886e-05 1.139967780349057593e-04 4.997718036684069966e-06 -5.399922413079197888e-05 5.500096915235490070e-05 4.399584727136136191e-05 1.050014400283017120e-04 1.040003029556068297e-04 -4.996095521634146954e-06 -5.800137132532238760e-05 -9.699938120380343840e-05 3.799799835375302975e-05 -5.999934921362780864e-05 4.800239801352973950e-05 -2.600192015148534476e-05 -5.999932745746455178e-05 4.599979188091747200e-05 -1.330054181605115279e-03 5.930200679264836490e-04 1.341937432606757786e-03 1.325946102021451556e-03 5.940178890440250999e-04 1.335045573016067303e-03 -1.099355500655741091e-06 -9.996619963187477684e-03 2.680514171018349642e-02 -1.846876719865829519e-02 -2.051772401394527656e-02 1.844553884952502762e-02 -3.958200225941914120e-06 1.272985796852697674e-03 -1.002018210244840770e-03 1.847123297274071499e-02 -2.051975300871204666e-02 1.844204310612544695e-02 1.006967117365263577e-06 -6.647004239273716052e-03 -2.989057194074324687e-04 -2.196029357111559457e-03 -1.609988497699334567e-03 6.899334025687072066e-04 2.194970479497478262e-03 -1.605991879124677108e-03 6.941121511111879999e-04 -1.319881077631449625e-04 1.579960059567043780e-04 -2.890076149703212278e-04 1.220121731542000813e-04 1.529957078316173291e-04 -2.959972009788131193e-04 9.005593785401118826e-06 3.309981356284734497e-04 -1.310043262302702230e-04 -3.119955495159888888e-04 -1.930013577766187603e-04 -1.130099684921545989e-04 -6.989466467492624377e-06 2.949964184690068484e-04 -2.530044672509922706e-04 3.160046989896288651e-04 -1.870019345655817499e-04 -1.189844808586565747e-04 1.002665458069316954e-08 -1.440035302565285968e-04 -2.489979581705907097e-04 3.430126027280646847e-04 -1.820047061992824703e-04 -3.129834521041516640e-04 -3.459874358541716760e-04 -1.800041525373373278e-04 -3.120115371270275394e-04 1.333457262546680101e-02 -1.756286643561568231e-02 1.015779200716748244e-02 -2.812637184949187841e-06 -7.427172647639714324e-04 1.994201043409850327e-02 -1.333242760065849429e-02 -1.756784547038991659e-02 1.016270617511399674e-02 2.502421461980023251e-06 -3.901248922994327017e-02 3.602655324647983937e-02 -2.254884116387587036e-03 -1.438690803666940786e-03 2.168392859684580010e-02 2.256115718554775953e-03 -1.436694279051620214e-03 2.168811226024594183e-02 1.620162592736957901e-03 -1.327710071363926011e-03 2.053908481747652309e-02 -1.624837891654572295e-03 -1.325707360408057102e-03 2.055095264994796778e-02 6.214617929792028213e-06 -3.272727451212954601e-03 1.922404667099518807e-02 2.780917896987195395e-03 -1.591625856912488174e-03 2.654313583173291760e-02 -8.024754825930191407e-07 -1.427206407057470721e-04 1.970400200910336908e-02 -2.776081858780229342e-03 -1.597621590869016932e-03 2.653690963103541925e-02 9.941866594154976747e-06 3.219369280098356104e-03 2.604695478549551302e-02 -1.109871883471910117e-03 -6.366957409500685009e-04 2.139896385191896594e-02 1.108128111554186135e-03 -6.406974776351390902e-04 2.139905422747779770e-02 1.661991932496894025e-04 6.427870393459847464e-05 1.966700587472286488e-02 -1.598007313068339999e-04 5.627893083656107509e-05 1.966499271314936514e-02 -2.848671828348730894e-06 1.236295821141642848e-03 2.086498237544658421e-02 3.014357650578583091e-05 2.229816311698056076e-05 2.103200093088427453e-02 3.141858392182963128e-06 -3.970123444626302671e-05 2.107300071040451792e-02 -3.485687215311678217e-05 2.129836996758050226e-05 2.104299829819648859e-02 -3.854169765453811238e-06 -6.370261838681605881e-05 2.097500076571598426e-02 -3.861895730045836977e-06 2.300089565444762980e-06 2.116599982980604117e-02 1.013818648359607230e-05 3.300050247807041990e-06 2.116400038572205031e-02 4.113609559072131314e-05 -1.469925095569566148e-05 2.121500190322076970e-02 -6.286434990154073836e-05 -1.169901356864888422e-05 2.122599762570873475e-02 8.140873202178183803e-06 -1.537009264382533107e-04 2.109500253025335323e-02 -4.145878284859517346e-06 1.093702922280652022e-03 -2.095401569459868357e-02 4.008945364507156099e-04 3.396883282032901112e-04 -2.196098851168422350e-02 -4.051064816853617028e-04 3.386893137431766575e-04 -2.193602131853569781e-02 1.147824552812479150e-03 -3.672880834824704052e-04 -2.025594807111463086e-02 -1.152175335654556524e-03 -3.832863251230848563e-04 -2.025904150222519393e-02 5.838506094900217683e-06 -4.382920664553077391e-04 -2.059999356738561813e-02 -5.361326138606137444e-04 -6.353017508196253391e-04 -2.131301284440471552e-02 -1.558255678511159367e-07 1.957061375987436238e-04 -2.072700280029470335e-02 5.468669725477313861e-04 -6.423024570258028133e-04 -2.130296864448790947e-02 3.704001607870570756e-06 1.046666152815111609e-03 -1.646130148416124483e-01 -3.524087656998928751e-03 -3.599315871348722842e-03 -2.247409249433767256e-02 3.525912857121838752e-03 -3.611321575781752374e-03 -2.248680524219205321e-02 5.737811491935891108e-03 1.729713440537898172e-03 -1.989479089351358157e-02 -5.732188778111755624e-03 1.736722520747668733e-03 -1.988825806092674175e-02 -7.212435705981822994e-06 -2.153274787548713470e-03 -1.938196978302458851e-02 2.159809550964264177e-03 2.730717191909521387e-03 -1.982795078472238820e-02 5.787471512636047271e-06 -1.284274528437157059e-03 -1.936298157414763702e-02 -2.163190686640985554e-03 2.734720661868272375e-03 -1.982212687767839765e-02 2.854051496649294526e-06 1.670264753014107949e-05 -2.097300014008380772e-02 -2.091357830054112914e-04 -2.300730921599253034e-06 -2.122300850329433830e-02 2.018644680309067321e-04 6.698862199301177098e-06 -2.122899189461882608e-02 1.368602910019693078e-04 -1.272996691129036359e-04 -2.112899264174680075e-02 -1.511395521443913018e-04 -1.352995003203857005e-04 -2.113300425592609666e-02 5.844340369882524795e-06 4.370603367152251124e-05 -2.073400040094304161e-02 -1.071374736760281302e-04 2.306998413678904871e-04 -2.117700765322917678e-02 -2.160705823387102916e-06 1.517078263268199063e-04 -2.060800225802543809e-02 1.098629748568056717e-04 2.316995155018748351e-04 -2.118799883097201991e-02