2.537720000000000198e+00 3.287510000000000154e+00 4.977219999999999978e+00 9.739069999999999894e+00 3.831150000000000055e+00 2.363949999999999996e+00 1.982520000000000060e+00 1.189300000000000024e+00 2.364009999999999945e+00 5.582250000000000156e+00 3.287490000000000023e+00 4.977219999999999978e+00 3.650020000000000042e+00 3.831150000000000055e+00 2.363960000000000061e+00 5.027040000000000397e+00 1.189289999999999958e+00 2.363999999999999879e+00 8.626760000000000872e+00 3.287490000000000023e+00 4.977210000000000356e+00 6.694539999999999935e+00 3.831150000000000055e+00 2.363970000000000127e+00 8.071550000000000225e+00 1.189300000000000024e+00 2.364009999999999945e+00 1.160740000000000105e+00 5.929380000000000095e+00 4.977219999999999978e+00 2.828260000000000218e+00 8.571220000000000283e+00 4.977219999999999978e+00 2.273060000000000080e+00 6.473029999999999617e+00 2.363999999999999879e+00 4.205259999999999998e+00 5.929369999999999585e+00 4.977219999999999978e+00 5.872779999999999667e+00 8.571220000000000283e+00 4.977199999999999847e+00 5.317569999999999908e+00 6.473019999999999996e+00 2.363999999999999879e+00 7.249769999999999825e+00 5.929359999999999964e+00 4.977219999999999978e+00 8.917299999999999116e+00 8.571220000000000283e+00 4.977219999999999978e+00 8.362090000000000245e+00 6.473019999999999996e+00 2.364009999999999945e+00 1.102590999999999966e+01 4.789279999999999760e+00 9.734069999999999112e+00 3.269369999999999887e+00 2.147429999999999950e+00 9.734120000000000772e+00 4.936869999999999870e+00 4.789299999999999891e+00 9.734069999999999112e+00 6.313889999999999780e+00 2.147440000000000015e+00 9.734109999999999374e+00 7.981390000000000207e+00 4.789299999999999891e+00 9.734069999999999112e+00 9.358399999999999608e+00 2.147440000000000015e+00 9.734109999999999374e+00 3.559899999999999842e+00 7.431180000000000341e+00 9.734109999999999374e+00 6.604409999999999670e+00 7.431160000000000210e+00 9.734099999999999753e+00 9.648920000000000385e+00 7.431169999999999831e+00 9.734109999999999374e+00 3.824580000000000091e+00 4.245630000000000237e+00 1.234731999999999985e+01 6.869089999999999918e+00 4.245639999999999858e+00 1.234731999999999985e+01 9.913600000000000634e+00 4.245639999999999858e+00 1.234732999999999947e+01 2.447579999999999867e+00 6.887509999999999799e+00 1.234731999999999985e+01 4.115099999999999980e+00 9.529360000000000497e+00 1.234731999999999985e+01 5.492099999999999760e+00 6.887509999999999799e+00 1.234731999999999985e+01 7.159620000000000317e+00 9.529360000000000497e+00 1.234732999999999947e+01 8.536609999999999587e+00 6.887509999999999799e+00 1.234732999999999947e+01 1.020414000000000065e+01 9.529360000000000497e+00 1.234732999999999947e+01 5.111419999999999852e+00 5.203780000000000072e+00 1.971743999999999986e+01 1.231274999999999942e+01 5.747429999999999595e+00 1.710416999999999987e+01 4.556219999999999715e+00 3.105589999999999851e+00 1.710423000000000116e+01 8.155950000000000699e+00 5.203789999999999694e+00 1.971743000000000023e+01 6.223720000000000141e+00 5.747429999999999595e+00 1.710416999999999987e+01 7.600730000000000430e+00 3.105579999999999785e+00 1.710423000000000116e+01 1.120045000000000002e+01 5.203780000000000072e+00 1.971743999999999986e+01 9.268250000000000099e+00 5.747429999999999595e+00 1.710416999999999987e+01 1.064523999999999937e+01 3.105570000000000164e+00 1.710422000000000153e+01 3.734420000000000073e+00 7.845659999999999634e+00 1.971743999999999986e+01 5.401959999999999873e+00 1.048750000000000071e+01 1.971743999999999986e+01 4.846739999999999604e+00 8.389319999999999666e+00 1.710422000000000153e+01 6.778950000000000031e+00 7.845659999999999634e+00 1.971743999999999986e+01 8.446469999999999700e+00 1.048751000000000033e+01 1.971743000000000023e+01 7.891250000000000320e+00 8.389310000000000045e+00 1.710422000000000153e+01 9.823460000000000747e+00 7.845650000000000013e+00 1.971743999999999986e+01 1.149099000000000004e+01 1.048751000000000033e+01 1.971742000000000061e+01 1.093577999999999939e+01 8.389310000000000045e+00 1.710423000000000116e+01 1.741800000000000015e+00 1.649681999999999960e+01 4.977210000000000356e+00 4.786319999999999908e+00 1.649682999999999922e+01 4.977210000000000356e+00 7.830820000000000114e+00 1.649682999999999922e+01 4.977219999999999978e+00 1.002960000000000029e+01 9.114879999999999427e+00 2.363970000000000127e+00 3.940549999999999997e+00 9.114879999999999427e+00 2.363949999999999996e+00 6.985079999999999956e+00 9.114869999999999806e+00 2.363970000000000127e+00 1.451270000000000060e+00 1.121310000000000073e+01 4.977210000000000356e+00 3.118799999999999795e+00 1.385495000000000054e+01 4.977199999999999847e+00 1.032011999999999929e+01 1.439860000000000007e+01 2.363949999999999996e+00 2.563579999999999970e+00 1.175675000000000026e+01 2.364009999999999945e+00 4.495790000000000397e+00 1.121310000000000073e+01 4.977219999999999978e+00 6.163310000000000066e+00 1.385495000000000054e+01 4.977219999999999978e+00 4.231090000000000018e+00 1.439859000000000044e+01 2.363949999999999996e+00 5.608100000000000307e+00 1.175675000000000026e+01 2.363999999999999879e+00 7.540300000000000225e+00 1.121308999999999934e+01 4.977219999999999978e+00 9.207829999999999515e+00 1.385493999999999915e+01 4.977219999999999978e+00 7.275599999999999845e+00 1.439860000000000007e+01 2.363960000000000061e+00 8.652620000000000644e+00 1.175675999999999988e+01 2.364009999999999945e+00 1.131643000000000043e+01 1.007301000000000002e+01 9.734069999999999112e+00 5.227409999999999890e+00 1.007301999999999964e+01 9.734059999999999491e+00 8.271910000000000096e+00 1.007301000000000002e+01 9.734069999999999112e+00 1.160696000000000083e+01 1.535674999999999990e+01 9.734059999999999491e+00 3.850439999999999863e+00 1.271490000000000009e+01 9.734120000000000772e+00 5.517940000000000289e+00 1.535674000000000028e+01 9.734080000000000510e+00 6.894960000000000200e+00 1.271490000000000009e+01 9.734109999999999374e+00 8.562450000000000117e+00 1.535674000000000028e+01 9.734069999999999112e+00 9.939460000000000406e+00 1.271489000000000047e+01 9.734120000000000772e+00 3.028640000000000221e+00 1.745496999999999943e+01 1.234732999999999947e+01 6.073170000000000179e+00 1.745496999999999943e+01 1.234731999999999985e+01 9.117670000000000385e+00 1.745497999999999905e+01 1.234731999999999985e+01 2.738109999999999822e+00 1.217122999999999955e+01 1.234731999999999985e+01 4.405640000000000001e+00 1.481310000000000038e+01 1.234732999999999947e+01 5.782630000000000159e+00 1.217123999999999917e+01 1.234731999999999985e+01 7.450160000000000338e+00 1.481310000000000038e+01 1.234732999999999947e+01 8.827139999999999986e+00 1.217123999999999917e+01 1.234732999999999947e+01 1.049466999999999928e+01 1.481309000000000076e+01 1.234732999999999947e+01 4.315489999999999604e+00 1.841310999999999964e+01 1.971743000000000023e+01 7.360000000000000320e+00 1.841310999999999964e+01 1.971743999999999986e+01 1.040451999999999977e+01 1.841310999999999964e+01 1.971743999999999986e+01 1.260328999999999944e+01 1.103115999999999985e+01 1.710417999999999950e+01 6.514249999999999652e+00 1.103115000000000023e+01 1.710417999999999950e+01 9.558770000000000877e+00 1.103116999999999948e+01 1.710417999999999950e+01 4.024949999999999584e+00 1.312939000000000078e+01 1.971743000000000023e+01 5.692470000000000141e+00 1.577125000000000021e+01 1.971743999999999986e+01 1.289381000000000022e+01 1.631487999999999872e+01 1.710418999999999912e+01 5.137270000000000003e+00 1.367304999999999993e+01 1.710422000000000153e+01 7.069469999999999921e+00 1.312939000000000078e+01 1.971743000000000023e+01 8.736990000000000478e+00 1.577124000000000059e+01 1.971743000000000023e+01 6.804770000000000429e+00 1.631488999999999834e+01 1.710416999999999987e+01 8.181789999999999452e+00 1.367304000000000030e+01 1.710422000000000153e+01 1.011400000000000077e+01 1.312936999999999976e+01 1.971743999999999986e+01 1.178152000000000044e+01 1.577122999999999919e+01 1.971743999999999986e+01 9.849289999999999878e+00 1.631488999999999834e+01 1.710418999999999912e+01 1.122630999999999979e+01 1.367304999999999993e+01 1.710423000000000116e+01 7.378299999999999859e-01 2.238389999999999880e+00 3.670580000000000176e+00 1.038254000000000055e+01 4.309379999999999988e+00 6.051829999999999821e+00 1.894290000000000029e+00 2.809260000000000090e+00 1.289509999999999934e+00 7.893189999999999706e+00 6.409250000000000114e+00 8.659610000000000696e+00 2.405380000000000074e+00 4.880279999999999951e+00 3.670669999999999877e+00 2.625999999999999890e+00 1.667550000000000088e+00 6.051899999999999835e+00 3.782350000000000101e+00 2.238399999999999945e+00 3.670570000000000110e+00 4.293520000000000003e+00 4.309379999999999988e+00 6.051829999999999821e+00 4.938819999999999766e+00 2.809280000000000221e+00 1.289520000000000000e+00 8.404220000000000468e+00 8.480270000000000863e+00 1.104068000000000005e+01 5.449880000000000280e+00 4.880279999999999951e+00 3.670659999999999812e+00 5.670519999999999783e+00 1.667559999999999931e+00 6.051899999999999835e+00 6.826850000000000307e+00 2.238399999999999945e+00 3.670570000000000110e+00 7.338009999999999700e+00 4.309379999999999988e+00 6.051829999999999821e+00 7.983329999999999593e+00 2.809270000000000156e+00 1.289509999999999934e+00 4.848670000000000258e+00 6.409229999999999983e+00 8.659620000000000317e+00 8.494410000000000238e+00 4.880270000000000330e+00 3.670650000000000190e+00 8.715020000000000877e+00 1.667550000000000088e+00 6.051910000000000345e+00 1.028359999999999941e+00 7.522129999999999761e+00 3.670570000000000110e+00 5.173299999999999566e-01 5.451100000000000279e+00 1.289500000000000091e+00 2.916519999999999779e+00 6.951279999999999681e+00 6.051899999999999835e+00 4.072860000000000369e+00 7.522129999999999761e+00 3.670580000000000176e+00 3.561840000000000117e+00 5.451089999999999769e+00 1.289520000000000000e+00 5.961050000000000182e+00 6.951279999999999681e+00 6.051910000000000345e+00 7.117390000000000327e+00 7.522140000000000271e+00 3.670570000000000110e+00 6.606349999999999945e+00 5.451089999999999769e+00 1.289500000000000091e+00 9.005559999999999121e+00 6.951279999999999681e+00 6.051899999999999835e+00 2.024680000000000035e+00 3.196540000000000159e+00 1.104068999999999967e+01 3.181150000000000144e+00 3.767409999999999926e+00 8.659629999999999939e+00 5.359720000000000262e+00 8.480270000000000863e+00 1.104068000000000005e+01 3.692219999999999835e+00 5.838420000000000165e+00 1.104077000000000019e+01 5.069180000000000241e+00 3.196549999999999780e+00 1.104068999999999967e+01 6.225660000000000416e+00 3.767419999999999991e+00 8.659629999999999939e+00 1.804159999999999986e+00 6.409239999999999604e+00 8.659620000000000317e+00 6.736740000000000173e+00 5.838420000000000165e+00 1.104076000000000057e+01 8.113699999999999690e+00 3.196549999999999780e+00 1.104068000000000005e+01 9.270170000000000243e+00 3.767419999999999991e+00 8.659620000000000317e+00 2.315189999999999859e+00 8.480270000000000863e+00 1.104068000000000005e+01 9.781240000000000379e+00 5.838420000000000165e+00 1.104077999999999982e+01 2.184829999999999828e+00 8.092990000000000350e+00 1.289509999999999934e+00 5.229339999999999655e+00 8.092999999999999972e+00 1.289530000000000065e+00 8.273860000000000881e+00 8.092990000000000350e+00 1.289520000000000000e+00 3.471670000000000034e+00 9.051149999999999807e+00 8.659629999999999939e+00 6.516189999999999927e+00 9.051140000000000185e+00 8.659629999999999939e+00 9.560710000000000264e+00 9.051140000000000185e+00 8.659620000000000317e+00 1.166938000000000031e+01 5.267520000000000202e+00 1.342193999999999932e+01 3.912840000000000096e+00 2.625690000000000079e+00 1.342200000000000060e+01 5.580359999999999765e+00 5.267529999999999824e+00 1.342195000000000071e+01 6.957360000000000433e+00 2.625690000000000079e+00 1.342201999999999984e+01 8.624859999999999971e+00 5.267520000000000202e+00 1.342195000000000071e+01 1.000187999999999988e+01 2.625690000000000079e+00 1.342201000000000022e+01 4.203359999999999985e+00 7.909410000000000274e+00 1.342201999999999984e+01 7.247880000000000322e+00 7.909419999999999895e+00 1.342201000000000022e+01 1.029241000000000028e+01 7.909419999999999895e+00 1.342201000000000022e+01 3.311510000000000176e+00 4.154679999999999929e+00 1.841079999999999828e+01 1.295622999999999969e+01 6.225679999999999659e+00 2.079204999999999970e+01 4.467999999999999972e+00 4.725559999999999761e+00 1.602973000000000070e+01 1.157925999999999966e+01 8.867549999999999599e+00 2.079211000000000098e+01 4.979059999999999597e+00 6.796549999999999869e+00 1.841088999999999842e+01 5.199690000000000367e+00 3.583839999999999915e+00 2.079212000000000060e+01 6.356029999999999625e+00 4.154700000000000060e+00 1.841079999999999828e+01 6.867200000000000415e+00 6.225670000000000037e+00 2.079205999999999932e+01 7.512500000000000178e+00 4.725539999999999630e+00 1.602973000000000070e+01 9.180039999999999978e+00 7.367390000000000327e+00 1.602973000000000070e+01 8.023569999999999425e+00 6.796560000000000379e+00 1.841087999999999880e+01 8.244210000000000704e+00 3.583829999999999849e+00 2.079212000000000060e+01 9.400539999999999452e+00 4.154690000000000438e+00 1.841079999999999828e+01 9.911709999999999354e+00 6.225670000000000037e+00 2.079204999999999970e+01 1.055701000000000001e+01 4.725550000000000139e+00 1.602974000000000032e+01 9.691079999999999472e+00 9.438420000000000698e+00 1.841079999999999828e+01 1.106808999999999976e+01 6.796560000000000379e+00 1.841088999999999842e+01 1.128871999999999964e+01 3.583819999999999784e+00 2.079213000000000022e+01 3.602040000000000131e+00 9.438399999999999679e+00 1.841078999999999866e+01 3.091009999999999813e+00 7.367379999999999818e+00 1.602972000000000108e+01 5.490210000000000257e+00 8.867559999999999221e+00 2.079213000000000022e+01 6.646550000000000402e+00 9.438409999999999300e+00 1.841079999999999828e+01 6.135530000000000150e+00 7.367379999999999818e+00 1.602973000000000070e+01 8.534729999999999706e+00 8.867549999999999599e+00 2.079212000000000060e+01 4.758530000000000371e+00 1.000929000000000002e+01 1.602973000000000070e+01 7.803040000000000198e+00 1.000928000000000040e+01 1.602974999999999994e+01 1.084755999999999965e+01 1.000929000000000002e+01 1.602974999999999994e+01 1.067306999999999917e+01 9.593109999999999360e+00 6.051840000000000330e+00 8.474270000000000636e+00 1.697669000000000139e+01 8.659620000000000317e+00 2.695910000000000029e+00 1.016400999999999932e+01 3.670659999999999812e+00 4.584039999999999893e+00 9.593099999999999739e+00 6.051840000000000330e+00 5.429739999999999789e+00 1.697669000000000139e+01 8.659610000000000696e+00 5.740420000000000300e+00 1.016399999999999970e+01 3.670650000000000190e+00 7.628560000000000230e+00 9.593120000000000758e+00 6.051829999999999821e+00 2.385219999999999896e+00 1.697669000000000139e+01 8.659620000000000317e+00 8.784929999999999239e+00 1.016400999999999932e+01 3.670669999999999877e+00 1.318889999999999896e+00 1.280585999999999913e+01 3.670580000000000176e+00 1.096359999999999957e+01 1.487684999999999924e+01 6.051829999999999821e+00 2.475359999999999783e+00 1.337672000000000061e+01 1.289520000000000000e+00 8.078499999999999570e-01 1.073481999999999914e+01 1.289509999999999934e+00 2.986439999999999984e+00 1.544773999999999958e+01 3.670669999999999877e+00 3.207050000000000178e+00 1.223498999999999981e+01 6.051910000000000345e+00 4.363389999999999880e+00 1.280585999999999913e+01 3.670570000000000110e+00 4.874570000000000292e+00 1.487684999999999924e+01 6.051829999999999821e+00 5.519879999999999676e+00 1.337672000000000061e+01 1.289520000000000000e+00 3.852370000000000072e+00 1.073483000000000054e+01 1.289509999999999934e+00 6.030949999999999811e+00 1.544772999999999996e+01 3.670659999999999812e+00 6.251570000000000071e+00 1.223499999999999943e+01 6.051910000000000345e+00 7.407919999999999838e+00 1.280584999999999951e+01 3.670560000000000045e+00 7.919069999999999609e+00 1.487683999999999962e+01 6.051840000000000330e+00 8.564389999999999503e+00 1.337673000000000023e+01 1.289520000000000000e+00 6.896880000000000344e+00 1.073483000000000054e+01 1.289509999999999934e+00 9.075450000000000017e+00 1.544773999999999958e+01 3.670659999999999812e+00 9.296089999999999520e+00 1.223498999999999981e+01 6.051899999999999835e+00 7.187400000000000233e+00 1.601855000000000118e+01 1.289520000000000000e+00 3.982749999999999790e+00 1.112213999999999992e+01 1.104076000000000057e+01 4.142890000000000406e+00 1.601855000000000118e+01 1.289509999999999934e+00 7.027269999999999683e+00 1.112214999999999954e+01 1.104077000000000019e+01 1.098389999999999977e+00 1.601855000000000118e+01 1.289509999999999934e+00 1.007177000000000078e+01 1.112214999999999954e+01 1.104077999999999982e+01 2.605719999999999814e+00 1.376399999999999935e+01 1.104068000000000005e+01 3.762199999999999989e+00 1.433487000000000045e+01 8.659629999999999939e+00 2.094700000000000006e+00 1.169295999999999935e+01 8.659620000000000317e+00 4.273279999999999745e+00 1.640587000000000018e+01 1.104077000000000019e+01 5.650240000000000151e+00 1.376398999999999972e+01 1.104068999999999967e+01 6.806720000000000326e+00 1.433486000000000082e+01 8.659639999999999560e+00 5.139210000000000278e+00 1.169297000000000075e+01 8.659620000000000317e+00 7.317789999999999573e+00 1.640587999999999980e+01 1.104077999999999982e+01 8.694750000000000867e+00 1.376401000000000074e+01 1.104068999999999967e+01 9.851229999999999265e+00 1.433486000000000082e+01 8.659629999999999939e+00 8.183730000000000615e+00 1.169297000000000075e+01 8.659620000000000317e+00 1.036229999999999940e+01 1.640587000000000018e+01 1.104077000000000019e+01 1.195991000000000071e+01 1.055124999999999957e+01 1.342195000000000071e+01 5.870879999999999654e+00 1.055125999999999920e+01 1.342195000000000071e+01 8.915390000000000370e+00 1.055124999999999957e+01 1.342193999999999932e+01 1.225042999999999971e+01 1.583498999999999945e+01 1.342195000000000071e+01 4.493900000000000006e+00 1.319313999999999965e+01 1.342201000000000022e+01 6.161410000000000053e+00 1.583498999999999945e+01 1.342193999999999932e+01 7.538409999999999833e+00 1.319314999999999927e+01 1.342201000000000022e+01 9.205940000000000012e+00 1.583497999999999983e+01 1.342196000000000033e+01 1.058294000000000068e+01 1.319314999999999927e+01 1.342201999999999984e+01 1.324676000000000009e+01 1.150941000000000081e+01 2.079204999999999970e+01 9.761100000000000776e+00 1.793483000000000160e+01 1.602974000000000032e+01 5.269599999999999618e+00 1.208028000000000013e+01 1.841087999999999880e+01 7.157720000000000304e+00 1.150939999999999941e+01 2.079204999999999970e+01 6.716590000000000060e+00 1.793484000000000123e+01 1.602973000000000070e+01 8.314120000000000843e+00 1.208029999999999937e+01 1.841087999999999880e+01 1.020223999999999975e+01 1.150939999999999941e+01 2.079204999999999970e+01 3.672070000000000167e+00 1.793483000000000160e+01 1.602974000000000032e+01 1.135862000000000016e+01 1.208028999999999975e+01 1.841088999999999842e+01 3.892570000000000086e+00 1.472212999999999994e+01 1.841079999999999828e+01 1.353728000000000087e+01 1.679314000000000107e+01 2.079204999999999970e+01 5.049050000000000260e+00 1.529301000000000066e+01 1.602974999999999994e+01 3.381540000000000212e+00 1.265112000000000059e+01 1.602972000000000108e+01 5.560120000000000395e+00 1.736402000000000001e+01 1.841087999999999880e+01 5.780759999999999899e+00 1.415127999999999986e+01 2.079213000000000022e+01 6.937090000000000423e+00 1.472213999999999956e+01 1.841079999999999828e+01 7.448269999999999946e+00 1.679313000000000144e+01 2.079205999999999932e+01 8.093569999999999709e+00 1.529299999999999926e+01 1.602974999999999994e+01 6.426070000000000171e+00 1.265110999999999919e+01 1.602972000000000108e+01 8.604630000000000223e+00 1.736402000000000001e+01 1.841088999999999842e+01 8.825269999999999726e+00 1.415128999999999948e+01 2.079213000000000022e+01 9.981600000000000250e+00 1.472213999999999956e+01 1.841078999999999866e+01 1.049277000000000015e+01 1.679313000000000144e+01 2.079205999999999932e+01 1.113809000000000005e+01 1.529301000000000066e+01 1.602974000000000032e+01 9.470570000000000377e+00 1.265109999999999957e+01 1.602972000000000108e+01 1.164916000000000018e+01 1.736402000000000001e+01 1.841087999999999880e+01 1.186978000000000044e+01 1.415127999999999986e+01 2.079212000000000060e+01