-2.758064031200000045e+03
-2.758068896490000043e+03
-2.758013248650000151e+03
-2.757898326980000093e+03
-2.757726083869999911e+03
-2.757499168159999954e+03
-2.757220973309999863e+03
-2.756895405490000030e+03
-2.756527089839999917e+03
-2.756121012229999906e+03
