1.937850000000000128e-01 1.253579999999999972e-01 -2.666729999999999934e-01 -1.941660000000000053e-01 -1.254730000000000012e-01 2.685759999999999814e-01 -1.933960000000000123e-01 -1.260449999999999904e-01 2.678730000000000278e-01 1.946259999999999935e-01 1.258229999999999904e-01 -2.669119999999999826e-01 -1.947280000000000122e-01 -1.256329999999999947e-01 2.688949999999999951e-01 -1.943610000000000060e-01 -1.256180000000000074e-01 2.684719999999999884e-01 1.930080000000000129e-01 1.254359999999999919e-01 -2.670259999999999856e-01 -1.939579999999999915e-01 -1.249740000000000018e-01 2.687780000000000169e-01 -1.946019999999999972e-01 -1.259740000000000026e-01 2.684639999999999804e-01 1.937280000000000113e-01 1.247960000000000041e-01 -2.666919999999999846e-01 1.941980000000000095e-01 1.254679999999999962e-01 -2.670049999999999923e-01 -1.941080000000000028e-01 -1.257719999999999949e-01 2.678119999999999945e-01 1.926329999999999987e-01 1.258749999999999869e-01 -2.665390000000000259e-01 1.935820000000000041e-01 1.248820000000000069e-01 -2.664340000000000042e-01 -1.941249999999999920e-01 -1.254020000000000135e-01 2.682329999999999992e-01 1.941070000000000018e-01 1.253920000000000035e-01 -2.663309999999999844e-01 1.932190000000000019e-01 1.252129999999999910e-01 -2.658570000000000100e-01 -1.940479999999999983e-01 -1.255739999999999912e-01 2.686749999999999972e-01 -1.941100000000000048e-01 -1.244880000000000014e-01 2.683150000000000257e-01 -1.934099999999999986e-01 -1.258970000000000089e-01 2.676930000000000143e-01 -1.947560000000000124e-01 -1.251730000000000065e-01 2.687060000000000004e-01 -1.943370000000000097e-01 -1.257399999999999907e-01 2.683550000000000102e-01 -1.939589999999999925e-01 -1.244360000000000049e-01 2.686999999999999944e-01 -1.945379999999999887e-01 -1.260580000000000034e-01 2.685890000000000222e-01 -1.942220000000000057e-01 -1.255680000000000129e-01 2.670819999999999861e-01 -1.941620000000000013e-01 -1.250769999999999937e-01 2.677700000000000080e-01 -1.936060000000000003e-01 -1.254250000000000087e-01 2.680429999999999757e-01 1.931849999999999956e-01 1.257060000000000122e-01 -2.664119999999999822e-01 1.944780000000000120e-01 1.257459999999999967e-01 -2.666040000000000076e-01 1.931299999999999961e-01 1.251480000000000092e-01 -2.669059999999999766e-01 1.937869999999999870e-01 1.242710000000000065e-01 -2.670910000000000228e-01 1.941190000000000138e-01 1.251349999999999962e-01 -2.673220000000000041e-01 1.924810000000000132e-01 1.252880000000000105e-01 -2.665390000000000259e-01 1.935719999999999941e-01 1.248729999999999979e-01 -2.671009999999999773e-01 1.940689999999999915e-01 1.248510000000000036e-01 -2.666120000000000156e-01 1.930929999999999869e-01 1.250060000000000060e-01 -2.664190000000000169e-01 1.937570000000000126e-01 1.253539999999999932e-01 -2.660859999999999892e-01 -1.940030000000000088e-01 -1.253180000000000127e-01 2.682720000000000105e-01 -1.936019999999999963e-01 -1.257749999999999979e-01 2.675660000000000260e-01 1.944730000000000070e-01 1.251690000000000025e-01 -2.657240000000000157e-01 -1.948020000000000029e-01 -1.250650000000000095e-01 2.686839999999999784e-01 -1.939869999999999928e-01 -1.256390000000000007e-01 2.682490000000000152e-01 1.930320000000000091e-01 1.247889999999999971e-01 -2.663280000000000092e-01 -1.941650000000000043e-01 -1.246810000000000002e-01 2.688110000000000221e-01 -1.946890000000000009e-01 -1.258680000000000077e-01 2.682100000000000040e-01 1.940189999999999970e-01 1.243360000000000021e-01 -2.669380000000000086e-01 1.941090000000000038e-01 1.255030000000000034e-01 -2.669790000000000219e-01 -1.938729999999999898e-01 -1.257900000000000129e-01 2.674659999999999815e-01 1.927560000000000107e-01 1.251629999999999965e-01 -2.662840000000000207e-01 1.934250000000000136e-01 1.248660000000000048e-01 -2.666069999999999829e-01 -1.939379999999999993e-01 -1.252139999999999920e-01 2.679449999999999887e-01 1.942069999999999907e-01 1.248640000000000028e-01 -2.662829999999999919e-01 1.933239999999999958e-01 1.248680000000000068e-01 -2.658220000000000027e-01 -1.939579999999999915e-01 -1.253479999999999872e-01 2.682970000000000077e-01 1.931630000000000014e-01 1.252280000000000060e-01 -2.667439999999999811e-01 1.929730000000000056e-01 1.251609999999999945e-01 -2.661419999999999897e-01 1.938580000000000025e-01 1.253980000000000095e-01 -2.671629999999999838e-01 -1.947299999999999864e-01 -1.252870000000000095e-01 2.693900000000000183e-01 -1.951869999999999994e-01 -1.255950000000000122e-01 2.698139999999999983e-01 -1.942149999999999987e-01 -1.251240000000000130e-01 2.688320000000000154e-01 1.940830000000000055e-01 1.256790000000000129e-01 -2.660529999999999839e-01 1.943139999999999867e-01 1.240030000000000021e-01 -2.660339999999999927e-01 -1.948519999999999974e-01 -1.251329999999999942e-01 2.690469999999999806e-01 -1.935199999999999976e-01 -1.252600000000000102e-01 2.683010000000000117e-01 1.926219999999999877e-01 1.252510000000000012e-01 -2.664599999999999747e-01 1.943670000000000120e-01 1.236249999999999988e-01 -2.669139999999999846e-01 -1.946160000000000112e-01 -1.252759999999999985e-01 2.696069999999999856e-01 -1.935240000000000016e-01 -1.257459999999999967e-01 2.679579999999999740e-01 1.930739999999999956e-01 1.261039999999999939e-01 -2.660020000000000162e-01 1.930570000000000064e-01 1.246600000000000069e-01 -2.665589999999999904e-01 -1.946140000000000092e-01 -1.255620000000000069e-01 2.682919999999999749e-01 -1.942379999999999940e-01 -1.258690000000000087e-01 2.679699999999999860e-01 -1.946970000000000089e-01 -1.253759999999999875e-01 2.688749999999999751e-01 -1.953149999999999886e-01 -1.256649999999999989e-01 2.691029999999999811e-01 -1.941279999999999950e-01 -1.252709999999999935e-01 2.682269999999999932e-01 -1.945520000000000027e-01 -1.255290000000000017e-01 2.688929999999999931e-01 -1.935409999999999908e-01 -1.254389999999999949e-01 2.677570000000000228e-01 -1.946509999999999907e-01 -1.252419999999999922e-01 2.690330000000000221e-01 -1.936640000000000028e-01 -1.263859999999999983e-01 2.674929999999999808e-01 -1.946690000000000087e-01 -1.254440000000000000e-01 2.681080000000000130e-01 -1.942579999999999862e-01 -1.259270000000000111e-01 2.674759999999999915e-01 1.933030000000000026e-01 1.248530000000000056e-01 -2.667120000000000046e-01 1.925429999999999919e-01 1.252850000000000075e-01 -2.659409999999999830e-01 1.939150000000000040e-01 1.254570000000000130e-01 -2.669090000000000074e-01 1.943620000000000070e-01 1.258650000000000047e-01 -2.667209999999999859e-01 1.943179999999999907e-01 1.240079999999999932e-01 -2.663110000000000199e-01 1.925060000000000104e-01 1.251889999999999947e-01 -2.666629999999999834e-01 1.939089999999999980e-01 1.238260000000000055e-01 -2.670529999999999848e-01 1.929400000000000004e-01 1.256009999999999904e-01 -2.665219999999999811e-01 1.932770000000000044e-01 1.250960000000000127e-01 -2.670629999999999948e-01 1.929510000000000114e-01 1.248800000000000049e-01 -2.657660000000000022e-01 1.930270000000000041e-01 1.254589999999999872e-01 -2.651729999999999920e-01 1.935679999999999901e-01 1.256099999999999994e-01 -2.660190000000000055e-01 -1.947490000000000054e-01 -1.252749999999999975e-01 2.692089999999999761e-01 -1.948910000000000087e-01 -1.253879999999999995e-01 2.690500000000000114e-01 -1.943999999999999895e-01 -1.256500000000000117e-01 2.685750000000000082e-01 1.943130000000000135e-01 1.260330000000000061e-01 -2.658139999999999947e-01 1.944249999999999867e-01 1.241649999999999976e-01 -2.655560000000000143e-01 -1.946229999999999905e-01 -1.251089999999999980e-01 2.686239999999999739e-01 -1.931100000000000039e-01 -1.255620000000000069e-01 2.680089999999999972e-01 1.926990000000000092e-01 1.255560000000000009e-01 -2.662760000000000127e-01 1.942720000000000002e-01 1.240559999999999996e-01 -2.661100000000000132e-01 -1.943789999999999962e-01 -1.258400000000000074e-01 2.693479999999999763e-01 -1.935159999999999936e-01 -1.259730000000000016e-01 2.675600000000000200e-01 1.929120000000000001e-01 1.266259999999999886e-01 -2.658880000000000132e-01 1.930830000000000046e-01 1.250380000000000102e-01 -2.657450000000000090e-01 -1.944899999999999962e-01 -1.255070000000000074e-01 2.681189999999999962e-01 -1.943159999999999887e-01 -1.258269999999999944e-01 2.679159999999999875e-01 4.569999999999999952e-04 -4.939999999999999730e-04 1.840999999999999972e-03 -1.692090000000000094e+00 -1.238150000000000084e+00 1.359914000000000067e+00 1.693746999999999892e+00 1.239030000000000076e+00 -1.361782000000000048e+00 1.692800000000000082e+00 1.237451999999999996e+00 -1.361042000000000085e+00 1.366999999999999943e-03 -3.939999999999999817e-04 -1.288000000000000082e-03 -1.692185000000000050e+00 -1.237587999999999910e+00 1.358492000000000033e+00 -2.449999999999999921e-04 -1.020999999999999989e-03 1.201000000000000028e-03 -1.692846000000000073e+00 -1.237846999999999920e+00 1.359866000000000019e+00 1.693305999999999978e+00 1.239030000000000076e+00 -1.361771000000000065e+00 -3.770000000000000022e-04 -9.219999999999999680e-04 1.534999999999999906e-03 8.350000000000000217e-04 -2.400000000000000061e-04 -1.315999999999999896e-03 -1.692228999999999983e+00 -1.237608999999999959e+00 1.358929999999999971e+00 4.000000000000000192e-04 -7.280000000000000230e-04 9.590000000000000000e-04 -1.692115000000000036e+00 -1.238561000000000023e+00 1.359874999999999945e+00 1.692671000000000037e+00 1.238963999999999954e+00 -1.361464000000000008e+00 1.692723999999999895e+00 1.238256000000000023e+00 -1.361331000000000069e+00 7.060000000000000303e-04 -5.700000000000000314e-05 -1.289999999999999914e-03 -1.692128999999999994e+00 -1.237706999999999891e+00 1.358379999999999921e+00 4.279999999999999950e-04 -1.252000000000000075e-03 1.000000000000000021e-03 1.692528000000000032e+00 1.238550999999999958e+00 -1.361900000000000110e+00 -1.691589999999999927e+00 -1.238353000000000037e+00 1.358648999999999996e+00 5.730000000000000501e-04 -1.077000000000000049e-03 9.150000000000000147e-04 1.693006000000000011e+00 1.238774999999999959e+00 -1.362389999999999990e+00 -1.691808999999999896e+00 -1.238602999999999899e+00 1.358983000000000052e+00 -5.000000000000000409e-06 -1.585999999999999953e-03 1.258000000000000004e-03 1.693127000000000049e+00 1.238437000000000010e+00 -1.362141999999999964e+00 -1.692261000000000015e+00 -1.238555999999999990e+00 1.358600999999999948e+00 5.599999999999999916e-05 -1.178999999999999927e-03 1.894999999999999983e-03 1.693680999999999992e+00 1.237657000000000007e+00 -1.362022999999999984e+00 -3.629999999999999872e-04 -4.850000000000000253e-04 1.407999999999999963e-03 7.630000000000000063e-04 -7.519999999999999558e-04 -8.700000000000000051e-04 -3.240000000000000150e-04 -1.694999999999999892e-03 8.000000000000000383e-04 1.693217999999999890e+00 1.237822999999999896e+00 -1.361687000000000092e+00 1.692274999999999974e+00 1.238115000000000077e+00 -1.360970000000000013e+00 3.449999999999999833e-04 -7.169999999999999724e-04 -9.979999999999999722e-04 3.069999999999999812e-04 -1.472000000000000001e-03 9.389999999999999476e-04 1.692870000000000097e+00 1.237489999999999979e+00 -1.361548999999999898e+00 -1.119999999999999983e-04 -8.899999999999999491e-04 1.064000000000000059e-03 6.390000000000000280e-04 -4.829999999999999767e-04 -1.325999999999999922e-03 1.693397000000000041e+00 1.238013999999999948e+00 -1.362551000000000068e+00 1.693426000000000098e+00 1.237184999999999979e+00 -1.362988000000000088e+00 1.693100000000000049e+00 1.237119999999999997e+00 -1.362441000000000013e+00 1.693259000000000070e+00 1.238059000000000021e+00 -1.360872000000000082e+00 1.692981999999999987e+00 1.237624000000000057e+00 -1.361345000000000027e+00 1.692749000000000059e+00 1.237346000000000057e+00 -1.360400999999999971e+00 -1.692285000000000039e+00 -1.238888999999999907e+00 1.359015000000000084e+00 -1.692449000000000092e+00 -1.238170999999999911e+00 1.357533000000000101e+00 -1.692981999999999987e+00 -1.238261000000000056e+00 1.358579999999999899e+00 -1.692182999999999993e+00 -1.237962999999999925e+00 1.357780999999999905e+00 -1.692363999999999979e+00 -1.238922000000000079e+00 1.359075000000000033e+00 -1.692588999999999899e+00 -1.237934000000000090e+00 1.357903000000000082e+00 -1.692002999999999924e+00 -1.237306000000000017e+00 1.357340999999999909e+00 -1.692242000000000024e+00 -1.237772000000000094e+00 1.358427000000000051e+00 -1.692819000000000074e+00 -1.237705000000000055e+00 1.357834999999999903e+00 1.849999999999999973e-04 -3.539999999999999853e-04 3.171999999999999906e-03 -1.692374999999999963e+00 -1.237729999999999997e+00 1.359329999999999927e+00 1.693748999999999949e+00 1.237924000000000024e+00 -1.360306999999999933e+00 -1.692738999999999994e+00 -1.238464000000000009e+00 1.358114000000000043e+00 9.840000000000000656e-04 2.939999999999999905e-04 2.939999999999999905e-04 -1.692072999999999938e+00 -1.236884000000000094e+00 1.356621000000000077e+00 -1.160000000000000007e-04 -1.013000000000000012e-03 2.547999999999999918e-03 -1.692539000000000016e+00 -1.237430000000000030e+00 1.358892999999999907e+00 1.693921999999999928e+00 1.238210999999999951e+00 -1.360379999999999923e+00 1.693623000000000101e+00 1.239009000000000027e+00 -1.359542999999999946e+00 5.680000000000000370e-04 6.000000000000000152e-05 4.400000000000000157e-04 -1.692301000000000055e+00 -1.236374000000000084e+00 1.356762000000000024e+00 4.490000000000000176e-04 -8.459999999999999638e-04 2.461000000000000080e-03 -1.692679000000000045e+00 -1.237962999999999925e+00 1.359359999999999902e+00 1.693400999999999934e+00 1.237822999999999896e+00 -1.360247999999999902e+00 -1.589999999999999888e-04 -1.124999999999999915e-03 1.910999999999999938e-03 6.899999999999999667e-04 3.350000000000000113e-04 1.250000000000000026e-04 -1.692744000000000026e+00 -1.236445000000000016e+00 1.356028000000000011e+00 -6.000000000000000152e-06 -8.409999999999999507e-04 1.593000000000000015e-03 1.692936999999999914e+00 1.239443000000000072e+00 -1.359045999999999976e+00 -1.691891999999999951e+00 -1.238374000000000086e+00 1.357955000000000023e+00 1.479999999999999925e-04 -5.990000000000000316e-04 1.681999999999999901e-03 1.693446000000000007e+00 1.239478000000000080e+00 -1.359545000000000003e+00 -1.692082000000000086e+00 -1.238710999999999895e+00 1.358448000000000100e+00 1.693882000000000110e+00 1.239343000000000083e+00 -1.359866999999999937e+00 1.693640999999999952e+00 1.238993999999999929e+00 -1.360225000000000017e+00 1.693675999999999959e+00 1.238526999999999934e+00 -1.359545999999999921e+00 -1.692607999999999890e+00 -1.237279999999999935e+00 1.360160000000000036e+00 1.692471000000000059e+00 1.240043000000000006e+00 -1.360340000000000105e+00 8.469999999999999881e-04 -1.830000000000000029e-04 -1.216999999999999983e-03 -1.692550999999999917e+00 -1.237421000000000104e+00 1.359838000000000102e+00 1.692360000000000086e+00 1.239095000000000057e+00 -1.359785999999999939e+00 8.790000000000000070e-04 -8.000000000000000654e-05 -1.079999999999999960e-04 -1.692517999999999967e+00 -1.237754999999999939e+00 1.360120999999999913e+00 1.692704999999999904e+00 1.239622999999999919e+00 -1.360792999999999919e+00 5.879999999999999810e-04 -2.730000000000000222e-04 -1.157000000000000042e-03 -1.190000000000000058e-04 3.649999999999999816e-04 1.266999999999999897e-03 -1.692242999999999942e+00 -1.237101000000000006e+00 1.360606999999999900e+00 1.693643999999999927e+00 1.238328000000000095e+00 -1.361698999999999993e+00 1.692587000000000064e+00 1.239079000000000041e+00 -1.361466999999999983e+00 8.019999999999999785e-04 5.339999999999999695e-04 -6.930000000000000396e-04 -1.691805000000000003e+00 -1.237149999999999972e+00 1.358699000000000101e+00 2.999999999999999737e-04 4.499999999999999877e-04 1.182000000000000108e-03 -1.692484000000000099e+00 -1.236834999999999907e+00 1.360146000000000077e+00 1.693318000000000101e+00 1.239008000000000109e+00 -1.361428000000000083e+00 1.692460000000000075e+00 1.238752999999999993e+00 -1.361552000000000096e+00 9.510000000000000224e-04 5.379999999999999583e-04 -5.950000000000000427e-04 -1.691299000000000108e+00 -1.237278000000000100e+00 1.358608000000000038e+00 4.299999999999999894e-04 2.829999999999999942e-04 1.784999999999999911e-03 -1.692101000000000077e+00 -1.236482000000000081e+00 1.359987999999999975e+00 1.693421999999999983e+00 1.238591999999999915e+00 -1.361463000000000090e+00 1.693403999999999909e+00 1.238660000000000094e+00 -1.361853999999999898e+00 9.550000000000000112e-04 6.689999999999999983e-04 -3.980000000000000248e-04 -1.692542999999999909e+00 -1.236745999999999901e+00 1.358694999999999986e+00 1.692714999999999970e+00 1.240933000000000064e+00 -1.360008000000000106e+00 3.330000000000000169e-04 2.590000000000000071e-04 -6.139999999999999625e-04 1.692600000000000104e+00 1.240450999999999970e+00 -1.359615999999999936e+00 3.649999999999999816e-04 2.559999999999999884e-04 -3.699999999999999811e-05 1.692409000000000052e+00 1.240444000000000102e+00 -1.360122000000000053e+00 -7.299999999999999903e-05 -2.799999999999999958e-05 -5.860000000000000408e-04 -9.399999999999999448e-05 -1.279999999999999942e-04 1.188000000000000037e-03 1.693311000000000011e+00 1.238614000000000104e+00 -1.361288999999999971e+00 1.692466999999999944e+00 1.240174000000000110e+00 -1.360136999999999929e+00 1.469999999999999953e-04 -6.139999999999999625e-04 -7.709999999999999840e-04 -3.009999999999999980e-04 2.829999999999999942e-04 9.139999999999999904e-04 1.692795000000000050e+00 1.239230999999999971e+00 -1.361377000000000059e+00 1.692137999999999920e+00 1.239808999999999939e+00 -1.360214000000000034e+00 7.140000000000000079e-04 -7.770000000000000214e-04 -1.214000000000000018e-03 3.379999999999999758e-04 -3.719999999999999891e-04 1.240000000000000000e-03 1.693257999999999930e+00 1.239001000000000019e+00 -1.361264000000000030e+00 1.692482999999999960e+00 1.239729999999999999e+00 -1.360470000000000068e+00 5.640000000000000482e-04 -1.589999999999999888e-04 -7.069999999999999462e-04 -1.692738999999999994e+00 -1.236488999999999949e+00 1.359474000000000071e+00 -1.693130000000000024e+00 -1.236504999999999965e+00 1.359207000000000054e+00 -1.692957000000000045e+00 -1.236877000000000004e+00 1.359356999999999926e+00 -1.692266999999999966e+00 -1.238096000000000085e+00 1.359043999999999919e+00 -1.692433000000000076e+00 -1.237538000000000027e+00 1.357896999999999910e+00 -1.692881999999999998e+00 -1.238318999999999948e+00 1.358954999999999913e+00 -1.691905999999999910e+00 -1.237481999999999971e+00 1.358128999999999920e+00 -1.692533999999999983e+00 -1.237492999999999954e+00 1.358781999999999934e+00 -1.692689000000000110e+00 -1.237357999999999958e+00 1.358085999999999904e+00 -1.692647000000000013e+00 -1.238494999999999902e+00 1.359285000000000077e+00 1.693321000000000076e+00 1.239654999999999951e+00 -1.359669000000000016e+00 5.619999999999999996e-04 -3.930000000000000117e-04 -1.299999999999999940e-03 -1.692423999999999928e+00 -1.238479000000000108e+00 1.358686000000000060e+00 1.692777999999999894e+00 1.238734999999999919e+00 -1.359239000000000086e+00 4.079999999999999968e-04 -6.419999999999999925e-04 5.099999999999999960e-05 -1.692298999999999998e+00 -1.238801000000000041e+00 1.359072000000000058e+00 1.692811999999999983e+00 1.238963000000000036e+00 -1.359769000000000005e+00 2.169999999999999891e-04 -8.949999999999999623e-04 -1.128000000000000096e-03 -1.340000000000000045e-04 -1.150000000000000035e-04 8.989999999999999511e-04 -1.692560999999999982e+00 -1.237476000000000020e+00 1.357631999999999950e+00 1.693788999999999989e+00 1.237589000000000050e+00 -1.361120000000000108e+00 1.693224000000000062e+00 1.239759999999999973e+00 -1.359890000000000043e+00 3.089999999999999756e-04 -3.040000000000000167e-04 8.600000000000000331e-05 -1.692209999999999992e+00 -1.238177000000000083e+00 1.356271000000000004e+00 -2.030000000000000012e-04 -9.699999999999999963e-05 8.130000000000000291e-04 -1.692897000000000096e+00 -1.237341000000000024e+00 1.357318999999999942e+00 1.693230000000000013e+00 1.238177000000000083e+00 -1.360783999999999994e+00 1.692404000000000019e+00 1.239541000000000004e+00 -1.359844999999999970e+00 1.003999999999999901e-03 -3.490000000000000263e-04 -3.570000000000000040e-04 -1.691683999999999966e+00 -1.238108999999999904e+00 1.356438000000000033e+00 3.170000000000000075e-04 -5.190000000000000386e-04 1.322000000000000041e-03 -1.692412000000000027e+00 -1.236779000000000073e+00 1.357048999999999950e+00 1.693553000000000086e+00 1.238172999999999968e+00 -1.360935000000000006e+00 1.693222999999999923e+00 1.239811999999999914e+00 -1.360349000000000030e+00 5.749999999999999903e-04 1.900000000000000105e-05 6.399999999999999710e-05 -1.692547999999999941e+00 -1.237692000000000014e+00 1.356567999999999996e+00