-1.511004328177911055e-02 8.708636601353396400e-03 -9.699973885309345900e-02 1.525394168798061174e-02 8.204358761381945475e-03 2.614750485790608842e-02 4.759413269185051951e-04 -4.599800700568368208e-04 1.432025903565141509e-03 6.219417184842310816e-04 -1.679802411148939752e-04 1.428027708906190593e-03 -9.710541430081427120e-04 1.682020070276987137e-03 1.361936611789300866e-03 3.478956164520058446e-04 -1.759639773087895963e-04 2.560016663762786950e-03 5.019224246420493033e-04 -1.733062994048485336e-02 2.612926617311728608e-02 1.430898154025411892e-03 -8.339658885619447145e-04 2.485070093482627269e-03 -1.916054972328458351e-03 -9.793597555240759216e-07 1.349921991772066185e-03 3.286407929368619611e-05 7.047299641343602438e-06 3.338001241440742995e-03 -7.612274662810137270e-05 3.404280555730036648e-05 3.014996420368617775e-03 3.486722581669972050e-05 1.250462347288032840e-04 3.262999649976075934e-03 -7.213290654345509711e-05 -9.595369564612405951e-05 3.261998426131662836e-03 7.871413767064171428e-06 1.304476721247725149e-05 3.158000138520212444e-03 5.787100179077181081e-05 -4.495514433132521075e-05 3.167002996864682739e-03 -4.512322511743757105e-05 4.704295141665334107e-05 3.026997498392922439e-03 5.987059222999243751e-05 -4.795500411906146004e-05 3.177003120830379414e-03 -2.012911012059968448e-05 -3.195504072554950084e-05 3.169999636324581736e-03 2.918542018370137107e-04 -1.779495146429188298e-04 3.577014410805249515e-03 -2.861318836685036206e-04 -1.419538967029887998e-04 3.235990364070812780e-03 -1.511943264416542286e-05 2.041595218541040900e-06 2.932999358105193872e-03 -1.612008417677620090e-05 2.041822846263008127e-06 2.948999317369469138e-03 2.687207013607458025e-05 3.310446105255386096e-04 3.147996403696896785e-03 -2.411995652260656107e-05 9.041786576140486333e-06 2.945998892361104734e-03 -2.913212563114716313e-05 3.290461146864473983e-04 3.250994151589012716e-03 2.998760000169604185e-04 -1.619571060290204241e-04 3.042014510225178516e-03 -2.771281710523470576e-04 -1.849552081027927228e-04 3.143991340287824888e-03 4.219676640438235976e-04 -2.639891441172220179e-04 7.890209263952734043e-04 -6.288853064195403832e-04 9.649608229358727163e-04 -2.798039292356082047e-03 2.140957363343353045e-04 5.219666421672537358e-04 -2.340998684354201297e-03 -3.599050185544306604e-04 -4.420329082957704910e-04 -2.341008390758759876e-03 4.201216973627204380e-04 -9.050429472200129284e-04 -3.005970063572220574e-03 -4.687935505711195611e-05 3.795804216712263593e-05 -2.962002449881543514e-03 -1.165886582065624524e-03 6.396144198477467300e-05 -2.784048385301262155e-03 1.751015614977481617e-04 -9.903552479157354943e-05 -2.495991467932193782e-03 1.009121915840944942e-03 1.019567899828691435e-04 -2.991960356011738424e-03 4.318663316097076828e-03 -2.494886840030987023e-03 8.220211239234524389e-03 4.015842985825941107e-05 1.591945242229559970e-03 -3.860020938577145289e-03 -4.364156384320235470e-03 -7.009423245112516090e-04 3.826832229260344713e-03 -1.585152529142824437e-03 4.118055470701030042e-03 3.824877069865308381e-03 2.720023892941457987e-03 -2.180105088046269113e-04 -5.908861479831343123e-04 -1.161087805380549461e-03 6.600316606301442814e-04 2.168943363751666374e-03 -1.356843215420852969e-03 -8.210537487483243833e-04 -3.866043614657331540e-03 -1.658904098454309483e-04 1.169620058738352411e-04 -2.689008415959920698e-03 1.532022476342422175e-03 -2.235009635113038590e-03 -5.949059278016291009e-04 2.912475060755208368e-05 -2.304346346956276620e-05 -3.063998490158468136e-03 -2.987397602744413849e-05 -9.043856785857184820e-06 -3.095001091148555285e-03 6.126695849048303549e-06 1.695588817893429242e-05 -3.110999993804891822e-03 -1.187314125266244924e-05 1.695584556168364530e-05 -3.115000726776493301e-03 -4.387380375457196390e-05 -4.904391670885536168e-05 -3.100001094125284188e-03 6.612451800542652281e-05 -8.043407375160527254e-06 -3.057997196159006805e-03 -1.287388519698207179e-05 2.956101546407699672e-06 -3.097000569025388800e-03 -2.887201986080602080e-05 -7.044538103232398632e-06 -3.143001078738610118e-03 5.112607483765112276e-05 5.595607978490143431e-05 -3.094998714314240416e-03 4.130051859671288834e-04 -2.410021948221047726e-04 -1.319797653247862699e-04 -1.329878696309194056e-04 3.059959641913943557e-04 -2.920097539973767167e-04 -2.939916435644962479e-04 -4.050027896287138789e-04 -2.130062297380196101e-04 2.000100651336147333e-04 4.249964548648321283e-04 -2.389978811570762213e-04 1.620126311867569203e-04 6.199549220960519195e-05 -3.089942819562081539e-04 -3.509836118340618457e-04 1.789946178732555173e-04 -3.990168304674928182e-04 -3.189894209363267476e-04 -1.100343644991176739e-05 -2.600128337544124649e-04 3.220096481463514764e-04 -1.590036547796203439e-04 -2.399846333984455619e-04 1.000941348296606038e-05 -1.470033254192572574e-04 -2.339975084427331226e-04 1.448913166371264445e-02 -8.409711314260999437e-03 2.116270926045127690e-02 -1.573993174647997330e-03 -1.269001489572830696e-03 -1.920461028593348164e-04 -1.291720265125847512e-02 -1.009757390928769753e-02 2.933961718926805448e-02 2.263814426494383490e-03 1.623441543486128444e-02 2.942686204356035826e-02 2.819980654185413015e-03 2.649005249204151955e-03 5.260772754157555346e-04 -4.980352277509734332e-03 2.903127345092428729e-03 8.706756044020080507e-03 2.690089773331740767e-04 1.998997208813755536e-03 -1.820173872710336576e-04 5.900081732795795343e-04 -3.260033967385076630e-04 -2.069713525545240074e-04 -8.540216285578342004e-04 -3.749992823335168007e-03 4.590183905794627088e-04 -6.299649479623155258e-05 5.599884421050650875e-05 -8.500335928935865326e-05 7.004024330175260583e-06 4.299860509074642650e-05 -9.800032450677062697e-05 4.700208771886891336e-05 6.599925430275896160e-05 -4.999902180590643918e-05 -1.199480652828943188e-05 -2.400180535943314720e-05 -1.280001482649015981e-04 -4.000307741212287285e-06 2.300011655202886533e-05 7.999511020598999654e-06 1.000298828449657396e-05 1.999895718896069587e-05 -7.299987627889749006e-05 -9.993794018943676059e-06 -8.300217554215701197e-05 -1.539992303109852495e-04 -5.997968679445270391e-06 -5.800071836373952666e-05 -5.099942196741608433e-05 7.999793229889476864e-06 -5.599994954714235495e-05 4.001119717844702716e-06 -3.016279973025818781e-02 1.731956594304640690e-02 -1.028154739033809301e-01 1.956173137731907329e-03 -4.291714814335162963e-03 2.022314052286717026e-02 2.746720134070003080e-02 1.273660819737571642e-02 4.441593795177569554e-02 2.614167612902951188e-03 -3.012537228178865586e-02 4.441953360375690274e-02 -2.405815340866952236e-03 3.963286842215244486e-03 2.009884586119244435e-02 -2.318757397430477266e-04 2.113051452291036831e-04 2.150998758197963934e-02 4.599180530983794715e-03 4.172818255518966784e-04 2.013218138507309740e-02 -3.387554029588027779e-05 5.030487678973253154e-05 2.150199792733551579e-02 -4.562817462303120526e-03 1.622882337874346581e-04 2.007781191601504603e-02 -9.486665443289339780e-05 1.653018621371062753e-04 2.128599381312159047e-02 9.015777316627085871e-05 5.529318226109802647e-05 2.068400290659264812e-02 2.014444899026205234e-05 2.522979299012343161e-04 2.101499726280596850e-02 -1.008546372035792963e-04 -8.870238647791963262e-05 2.098599717022728642e-02 5.414856320914398553e-05 -5.703599540934137089e-06 2.090900230527641818e-02 6.613232339478020323e-05 -4.769796617009937096e-05 2.130700338902271826e-02 1.021590001666075408e-04 -1.457073091596350865e-04 2.065000624500492460e-02 -1.268655957644375788e-04 -4.269853811990885224e-05 2.125599545905704560e-02 3.614748092506563836e-05 -1.397032451664058676e-04 2.093300347209909457e-02 4.414270020004984273e-05 -4.701550108541086213e-06 2.105300188375628170e-02 2.121427517515794327e-04 9.298304168897993268e-06 2.105200852637151288e-02 -2.698482885052550006e-04 -4.170445171458872708e-05 2.083098962219264924e-02 -7.784842950787698181e-05 1.942955113487207269e-04 2.083899409463645103e-02 1.701457174554989735e-04 2.082973587667949738e-04 2.098300399478497669e-02 -8.887744475184328728e-05 1.030557203714027560e-05 2.154799625475648309e-02 9.614093030507421176e-05 -1.327010095218274341e-04 2.109400581595615234e-02 -1.187710494466423085e-05 2.830539832225875642e-05 2.153999913506970953e-02 -1.138555362605152418e-04 -2.487021069047278595e-04 2.100499890928071364e-02 2.715504590033842192e-03 -1.637178256421332285e-03 -1.242286622234202095e-02 -2.244361798525461305e-03 -1.842220946797500959e-03 -1.570806528826831916e-02 -4.960922578742663807e-04 -4.253157756446654153e-04 -2.230001419198348808e-02 5.990618777009447496e-05 7.096846395627725646e-04 -2.224000764300757688e-02 7.384667165361061519e-05 1.823705654159046277e-03 -2.075702286832276089e-02 -1.140941866586980694e-04 1.796847616797384831e-04 -2.224100721422010360e-02 4.316379227011093262e-04 2.793778318505778843e-03 -1.561202204747140498e-02 1.051833978845593404e-03 -6.542913684234076543e-04 -2.049294791107790850e-02 -1.462156301042743080e-03 -9.842928734976677529e-04 -2.073804560440791964e-02 1.167826035415131069e-04 -1.327257387532926710e-05 -1.921899507420439523e-02 2.396271719501021685e-05 1.240665130695092723e-03 -2.361801663606963309e-02 -1.210877494510072906e-04 5.476826262765130361e-04 -2.239201271654264747e-02 -4.850886516259122474e-04 -1.883169752163259649e-04 -2.238401710410597989e-02 1.121892209204879099e-03 1.766885292804435152e-04 -2.190695684102532056e-02 -6.381975622825959878e-04 3.017211977354431114e-04 -1.970003028399534145e-02 -9.970357276298444631e-04 -6.213351188349778686e-04 -2.369203181299425753e-02 6.148421023694471133e-04 -3.692937767751193002e-04 -2.068696974657209184e-02 3.828910987855450691e-04 -1.085310849424787156e-03 -2.190396904139958745e-02 8.852566735668793380e-06 -7.296846764783308094e-06 -2.093699955552584535e-02 -1.114696962205201998e-05 6.470302710992774028e-05 -2.094700139073253989e-02 -8.153990847638895487e-06 4.270546334395961398e-05 -2.077500095681908063e-02 -4.215071361286383653e-05 -3.629567260542676240e-05 -2.085700122120847863e-02 4.385080155623389847e-05 -1.292962928677398693e-04 -2.089599640064702946e-02 -3.115383345519837565e-05 -1.629458953015774014e-05 -2.078000105690596538e-02 -6.414657493185080381e-05 -3.297087340169798320e-06 -2.095800258483951004e-02 -4.814871510247028819e-05 7.170366572528047227e-05 -2.090400299668834783e-02 1.098501923309842555e-04 2.870391063890216166e-05 -2.087799595317421306e-02
-1.504505396714814723e-02 8.687640265043147098e-03 -9.673773590874866490e-02 1.519894521585141503e-02 8.185357570980452899e-03 2.606050288771765908e-02 4.629417364884078827e-04 -4.569802016561428531e-04 1.422025331670082613e-03 6.269418766620031905e-04 -1.739803017404513484e-04 1.424027997580745242e-03 -9.580538806966760112e-04 1.653019960856393078e-03 1.354937552322013281e-03 3.308960510745965491e-04 -1.929641199518901677e-04 2.549016212540522377e-03 5.109253330778236414e-04 -1.725663093998495989e-02 2.605926549051551869e-02 1.414898288738378196e-03 -8.179659185690053977e-04 2.482069215107582730e-03 -1.911055173586084788e-03 2.020707218169526140e-06 1.354922152838383383e-03 1.786361570541732981e-05 -1.295253265594883239e-05 3.349000914173020250e-03 -5.312324156584559361e-05 2.604295768273963166e-05 3.026997470359146618e-03 2.786678964686771037e-05 1.400463961640131957e-04 3.273999152253440851e-03 -1.091331892079269278e-04 -9.295356743100116875e-05 3.268996876920373697e-03 1.587059777648176917e-05 1.104504450461689388e-05 3.178000492623955786e-03 8.487079581345749663e-05 -4.795509458294217021e-05 3.172004138856305330e-03 -5.012307476710631200e-05 3.104289862206565352e-05 3.022997521636600592e-03 4.286987572401526158e-05 -2.695473560992730407e-05 3.195002130826144794e-03 8.704928400381352631e-07 -1.895491539182569959e-05 3.180000307142234056e-03 2.838539262006507151e-04 -1.659494091355918129e-04 3.584013914898771802e-03 -2.901329917471746921e-04 -1.529535107694204627e-04 3.262990357117706835e-03 -3.120452242265481513e-06 4.194026767287303332e-08 2.957999875087694800e-03 -4.120410737022583442e-06 1.041926872772854244e-06 2.956999820190009745e-03 1.187172325029265712e-05 3.560447498681189554e-04 3.156995438431676928e-03 -1.712093304499914467e-05 1.004212136215530026e-05 2.969999163206989232e-03 -1.513253363473236183e-05 3.280462455025555911e-04 3.260994735849395438e-03 3.118753351528181280e-04 -1.789568885785346717e-04 3.058015239882496978e-03 -3.021286205279991879e-04 -1.869550325719381901e-04 3.154990350611848026e-03 4.339682059419667300e-04 -2.479893378261285625e-04 7.760211882133561442e-04 -6.118857582807478174e-04 9.599609655811911120e-04 -2.787038529223021237e-03 1.810956588378929196e-04 5.269666963612135071e-04 -2.339000099032964488e-03 -3.629051657638326825e-04 -4.220328492376168345e-04 -2.337008796480300778e-03 4.141213340144305768e-04 -9.010428149222809253e-04 -2.996970364616747661e-03 -3.987985781732066438e-05 1.995820682150851183e-05 -2.950001909646998623e-03 -1.135886550772548459e-03 5.196140431830436777e-05 -2.785046993541637206e-03 1.651015654239096147e-04 -9.403551696211604925e-05 -2.495991946029522002e-03 9.851221930709957737e-04 9.195670953121744262e-05 -2.998961191528023550e-03 4.304664381119116881e-03 -2.486887197692526971e-03 8.194210555744671151e-03 3.215932258908091052e-05 1.587944936582434425e-03 -3.882021207612449190e-03 -4.340155655282888769e-03 -7.059425985029718848e-04 3.808833277466321370e-03 -1.560151840043573403e-03 4.114055210104008119e-03 3.807878144613443400e-03 2.687024551554430263e-03 -2.090107098113868657e-04 -6.068876193562187287e-04 -1.152086374673599520e-03 6.670311573596355258e-04 2.133943631027518124e-03 -1.359842646110178159e-03 -8.220539448883702359e-04 -3.880043722629106847e-03 -1.568903895049662280e-04 9.096198465169558634e-05 -2.690007680849481296e-03 1.526022853804987573e-03 -2.221009758016631152e-03 -6.039063706070580372e-04 4.212487197571642317e-05 -2.404351618179806978e-05 -3.066997946606851624e-03 -1.987372779283063778e-05 -4.043949683094980622e-06 -3.101000754823283762e-03 -1.487277789690809513e-05 1.295572031091708901e-05 -3.124000792219626312e-03 -1.787286560468781253e-05 4.955751016302777250e-06 -3.122000800961931537e-03 -1.187377559744854971e-05 -6.504395594091471765e-05 -3.100999564212903511e-03 3.812507479966060440e-05 -2.504358393868945284e-05 -3.071998095307844779e-03 -5.873706647958086013e-06 2.295603935223692498e-05 -3.101000567530981869e-03 -3.187232211783329094e-05 2.295557766509462866e-05 -3.135001626241504507e-03 4.712635205111391723e-05 4.595598367332663419e-05 -3.101998735413503006e-03 4.300026988474943803e-04 -2.450013432871190082e-04 -7.097901641596891169e-05 -1.389905321520135042e-04 2.859968904480861469e-04 -2.270097148276379944e-04 -2.979932637754706816e-04 -3.940022193860236296e-04 -1.730065486140061560e-04 1.950075122620167933e-04 4.409973519793077804e-04 -1.759983116641119626e-04 1.600084361583210520e-04 6.099695408862072701e-05 -2.059943493158955519e-04 -3.489865327661726725e-04 1.929956371071180434e-04 -3.270169475814101623e-04 -3.099912972367258675e-04 -1.500279131788721821e-05 -2.140124105984600954e-04 2.940075275516001074e-04 -1.630028956099658646e-04 -1.879857169195620428e-04 2.200724273131686239e-05 -1.630025833904438998e-04 -1.809967929975729887e-04 1.440314007894349588e-02 -8.323714153380047664e-03 2.095770453936099051e-02 -1.570989602945185165e-03 -1.232002725393745559e-03 -2.790465051931546956e-04 -1.283019583211960669e-02 -1.002157633093005498e-02 2.917361965462638915e-02 2.264824067879791982e-03 1.611841204559689295e-02 2.918786372912394664e-02 2.816985770125846490e-03 2.630003465152839972e-03 4.000774227478374806e-04 -4.971346521015841333e-03 2.870125324801848458e-03 8.564756878505937893e-03 2.700129123659296350e-04 1.979995832786525089e-03 -2.790170770825056365e-04 5.980103205074359688e-04 -3.400041544242198097e-04 -2.599708282497577793e-04 -8.640185329821258075e-04 -3.748993893017755173e-03 3.830179692638375761e-04 -7.599662478370426038e-05 4.599889692385073799e-05 -8.200374688557729138e-05 3.500284105187125602e-05 3.999899432322202435e-05 -6.899914181660730722e-05 3.800333831877155923e-05 5.099882183958027142e-05 -8.099917559829693172e-05 -1.899592008948670685e-05 -4.200141707617064454e-05 -1.010001781362161613e-04 3.999697737166921982e-06 3.000011028735393681e-05 7.999737543063663168e-06 1.300187236428483357e-05 -1.000662357435923748e-06 -4.599945640841049339e-05 -1.499679560335521043e-05 -6.800112247183153315e-05 -7.999964665048311051e-05 2.200115737890891772e-05 -3.000042837895661971e-05 -2.899867878141306480e-05 -1.300031010944946448e-05 -3.199989057325646678e-05 6.999924310859245449e-06 -2.991582266180597277e-02 1.726057371757329720e-02 -1.022534630093650809e-01 1.940181262373805214e-03 -4.212717609018671802e-03 2.002513875147429734e-02 2.725721056569912690e-02 1.271260514344777978e-02 4.418892974087429426e-02 2.604177400092114441e-03 -2.995137563411373952e-02 4.418253072983786139e-02 -2.371809937585587190e-03 3.895284915775652085e-03 1.996484820991386439e-02 -2.548667803805768051e-04 1.603020299503813654e-04 2.128898736867143940e-02 4.604185173155408636e-03 4.172802053682445078e-04 2.001818158878332712e-02 -5.686940004927070852e-05 3.930275395265319608e-05 2.135099714685170444e-02 -4.545812892988812005e-03 1.212866183897572244e-04 1.996481318966286320e-02 -1.288573779138874021e-04 1.032986420500876963e-04 2.105699330784686560e-02 7.616205983611248518e-05 6.929170455311970105e-05 2.057900213810965120e-02 5.915079981682893836e-05 1.982956734559560117e-04 2.085799961666433971e-02 -1.158495862648112421e-04 -1.387041469523571217e-04 2.086099726841889393e-02 9.815434866622593237e-05 -1.705647240109821075e-06 2.076700404041481943e-02 2.713625221710506968e-05 -2.269929670412443887e-05 2.121100144655467881e-02 7.163550818007807535e-06 -1.067088085142172419e-04 2.053900182369448185e-02 -5.286018463055126382e-05 3.299532464750336881e-06 2.112399782034561635e-02 4.815561257092063996e-05 -1.037060759472662299e-04 2.073400345053481170e-02 2.714851780925685586e-05 -1.170356422163769444e-05 2.091000129087909262e-02 2.091476499834900402e-04 -2.770340899162246234e-05 2.093100892889868808e-02 -2.408432845674271831e-04 -4.770621828970206968e-05 2.070799088827825554e-02 -7.584031195805076013e-05 2.122926883996365227e-04 2.063999392106339800e-02 1.401509062656791649e-04 2.302955816744507017e-04 2.085600246136670374e-02 -6.687140476501911334e-05 2.730345649579729160e-05 2.139999690973080557e-02 1.231474307291860069e-04 -1.517032991080663527e-04 2.093400718494537252e-02 -1.387129831792703034e-05 7.303372465631168075e-06 2.139699935149397270e-02 -1.248495792551479000e-04 -2.337041682514053454e-04 2.085899824882062048e-02 2.703497515612642878e-03 -1.571175765917843213e-03 -1.224786764688730323e-02 -2.182373201954252839e-03 -1.792217011387805658e-03 -1.542706347272494033e-02 -5.311032352334235608e-04 -4.033119202372697425e-04 -2.203001592937506650e-02 7.289772798606391764e-05 6.706875641913944471e-04 -2.203300656089616366e-02 7.383773341673744849e-05 1.797708759098851561e-03 -2.053802249990449233e-02 -1.351050395661891666e-04 1.006885352463931149e-04 -2.197600694956100553e-02 4.606307401377449421e-04 2.773780791092890410e-03 -1.543602058317506374e-02 1.052824681981046886e-03 -6.182881224948948021e-04 -2.026394838096942305e-02 -1.508164355111604174e-03 -9.732900302774716381e-04 -2.054004763370653047e-02 1.337761602068283278e-04 -7.727036126593995764e-05 -1.906199347471900993e-02 -6.044185758553854394e-06 1.213667550235115805e-03 -2.344901747505265602e-02 -1.080947604984328357e-04 5.386850546792728385e-04 -2.222001205973160587e-02 -5.210948356787211506e-04 -1.813147920042748455e-04 -2.223201866944226127e-02 1.152884743161122771e-03 1.586910995459287399e-04 -2.172395532364930840e-02 -6.352059914739850667e-04 3.537241443626480057e-04 -1.949203089926984309e-02 -1.047044993134133321e-03 -5.973318471502467525e-04 -2.346403418951508238e-02 6.048356473535165681e-04 -3.442915146782152356e-04 -2.052797050837249643e-02 4.448835708637345686e-04 -1.078308275079112311e-03 -2.171896661612313789e-02 1.846716261262235099e-06 9.705200317008294189e-06 -2.079300008172764447e-02 -2.015051311124189593e-05 6.370426762519056194e-05 -2.086000174312331243e-02 1.384249225397706922e-05 2.370666541036083779e-05 -2.068899979166279740e-02 -5.157992487458348117e-06 -2.329316375222506580e-05 -2.067799989901430990e-02 2.784324943331981819e-05 -1.012936432726865496e-04 -2.070999744933092745e-02 -3.615731193608773177e-05 1.370663367219993148e-05 -2.069400168592307188e-02 -5.815130874072386335e-05 -1.629544741257404981e-05 -2.084200215631130948e-02 -4.015392191659386041e-05 2.670546004585885939e-05 -2.077700203304024343e-02 9.784496831981326934e-05 1.370573479417469602e-05 -2.074999622927696519e-02