2.895700000000000163e+00 2.995350000000000179e+00 3.962899999999999867e+00 7.818899999999999739e-01 3.678819999999999979e+00 1.881320000000000103e+00 2.220279999999999809e+00 1.051560000000000050e+00 1.881350000000000078e+00 4.125379999999999825e+00 3.678819999999999979e+00 1.881299999999999972e+00 2.248689999999999856e+00 4.224910000000000387e+00 7.748549999999999827e+00 3.687100000000000044e+00 1.597620000000000040e+00 7.748590000000000089e+00 5.592190000000000438e+00 4.224890000000000256e+00 7.748560000000000336e+00 6.239180000000000170e+00 2.995359999999999800e+00 3.962899999999999867e+00 4.362510000000000332e+00 3.541420000000000012e+00 9.830130000000000479e+00 5.829320000000000057e+00 4.087500000000000355e+00 1.569739000000000040e+01 3.715520000000000156e+00 4.770959999999999646e+00 1.361579000000000050e+01 5.153909999999999769e+00 2.143699999999999939e+00 1.361584000000000039e+01 7.059009999999999785e+00 4.770970000000000155e+00 1.361580000000000013e+01 7.706010000000000026e+00 3.541430000000000078e+00 9.830140000000000100e+00 9.172800000000000509e+00 4.087489999999999846e+00 1.569739000000000040e+01 3.362420000000000186e+00 8.249930000000000874e+00 3.962889999999999802e+00 2.687009999999999899e+00 6.306140000000000079e+00 1.881350000000000078e+00 4.800810000000000244e+00 5.622650000000000148e+00 3.962899999999999867e+00 4.153819999999999624e+00 6.852190000000000225e+00 7.748599999999999710e+00 6.705919999999999881e+00 8.249930000000000874e+00 3.962889999999999802e+00 4.829229999999999912e+00 8.796010000000000773e+00 9.830140000000000100e+00 6.267610000000000348e+00 6.168730000000000047e+00 9.830149999999999721e+00 6.296059999999999768e+00 9.342079999999999274e+00 1.569739000000000040e+01 5.620639999999999858e+00 7.398279999999999745e+00 1.361585000000000001e+01 7.734440000000000204e+00 6.714800000000000324e+00 1.569740000000000002e+01 8.172729999999999606e+00 8.795999999999999375e+00 9.830140000000000100e+00 9.639549999999999841e+00 9.342079999999999274e+00 1.569740000000000002e+01 1.248620000000000063e+00 8.933400000000000674e+00 1.881310000000000038e+00 4.592109999999999914e+00 8.933419999999999916e+00 1.881320000000000103e+00 3.153739999999999988e+00 1.156071000000000026e+01 1.881350000000000078e+00 5.267529999999999824e+00 1.087724000000000046e+01 3.962899999999999867e+00 2.715419999999999945e+00 9.479469999999999175e+00 7.748560000000000336e+00 6.058919999999999639e+00 9.479480000000000572e+00 7.748549999999999827e+00 4.620549999999999713e+00 1.210679000000000016e+01 7.748599999999999710e+00 6.734340000000000437e+00 1.142331000000000074e+01 9.830149999999999721e+00 4.182240000000000180e+00 1.002555000000000085e+01 1.361580000000000013e+01 7.525730000000000253e+00 1.002555000000000085e+01 1.361580999999999975e+01 6.087369999999999948e+00 1.265285000000000082e+01 1.361584000000000039e+01 8.201159999999999783e+00 1.196936999999999962e+01 1.569739000000000040e+01 5.734259999999999913e+00 1.613179999999999836e+01 3.962889999999999802e+00 3.829149999999999832e+00 1.350450999999999979e+01 3.962899999999999867e+00 1.715330000000000021e+00 1.418798999999999921e+01 1.881310000000000038e+00 5.058830000000000382e+00 1.418798999999999921e+01 1.881320000000000103e+00 3.182160000000000100e+00 1.473405999999999949e+01 7.748549999999999827e+00 6.525649999999999729e+00 1.473404999999999987e+01 7.748569999999999958e+00 7.172649999999999970e+00 1.350451999999999941e+01 3.962899999999999867e+00 7.201080000000000148e+00 1.667789000000000144e+01 9.830149999999999721e+00 5.295960000000000001e+00 1.405058000000000007e+01 9.830140000000000100e+00 8.667889999999999873e+00 1.722394999999999854e+01 1.569739000000000040e+01 6.762780000000000236e+00 1.459665999999999997e+01 1.569739000000000040e+01 4.648979999999999890e+00 1.528012999999999977e+01 1.361580000000000013e+01 7.992449999999999832e+00 1.528012000000000015e+01 1.361580000000000013e+01 8.639459999999999695e+00 1.405058000000000007e+01 9.830140000000000100e+00 1.010626000000000069e+01 1.459665000000000035e+01 1.569738000000000078e+01 5.563769999999999882e+00 1.051560000000000050e+00 1.881340000000000012e+00 9.582670000000000243e+00 2.995350000000000179e+00 3.962899999999999867e+00 7.468860000000000277e+00 3.678830000000000044e+00 1.881310000000000038e+00 8.907260000000000844e+00 1.051549999999999985e+00 1.881350000000000078e+00 7.030579999999999607e+00 1.597620000000000040e+00 7.748599999999999710e+00 8.935670000000000002e+00 4.224899999999999878e+00 7.748560000000000336e+00 1.037406999999999968e+01 1.597620000000000040e+00 7.748590000000000089e+00 1.104948000000000086e+01 3.541430000000000078e+00 9.830149999999999721e+00 8.497410000000000352e+00 2.143689999999999873e+00 1.361585000000000001e+01 1.251629999999999932e+01 4.087500000000000355e+00 1.569739000000000040e+01 1.040248000000000062e+01 4.770970000000000155e+00 1.361580000000000013e+01 1.184088999999999992e+01 2.143689999999999873e+00 1.361583000000000077e+01 6.030499999999999972e+00 6.306119999999999948e+00 1.881350000000000078e+00 8.144299999999999429e+00 5.622650000000000148e+00 3.962889999999999802e+00 1.004940000000000033e+01 8.249940000000000495e+00 3.962889999999999802e+00 9.373979999999999535e+00 6.306140000000000079e+00 1.881340000000000012e+00 7.497320000000000206e+00 6.852210000000000356e+00 7.748599999999999710e+00 1.084080999999999939e+01 6.852210000000000356e+00 7.748599999999999710e+00 1.148778000000000077e+01 5.622639999999999638e+00 3.962899999999999867e+00 9.611119999999999663e+00 6.168730000000000047e+00 9.830140000000000100e+00 1.151620999999999917e+01 8.796010000000000773e+00 9.830140000000000100e+00 8.964130000000000820e+00 7.398270000000000124e+00 1.361584000000000039e+01 1.107792000000000066e+01 6.714800000000000324e+00 1.569740000000000002e+01 1.298304000000000080e+01 9.342090000000000671e+00 1.569739000000000040e+01 1.230762000000000000e+01 7.398279999999999745e+00 1.361583000000000077e+01 1.295459999999999923e+01 6.168720000000000425e+00 9.830140000000000100e+00 1.442140999999999984e+01 6.714800000000000324e+00 1.569740000000000002e+01 7.935590000000000366e+00 8.933410000000000295e+00 1.881310000000000038e+00 6.497239999999999682e+00 1.156071000000000026e+01 1.881350000000000078e+00 8.611019999999999897e+00 1.087724000000000046e+01 3.962899999999999867e+00 9.840730000000000643e+00 1.156071000000000026e+01 1.881340000000000012e+00 9.402400000000000091e+00 9.479480000000000572e+00 7.748549999999999827e+00 7.964030000000000165e+00 1.210678000000000054e+01 7.748590000000000089e+00 1.130752999999999986e+01 1.210679000000000016e+01 7.748590000000000089e+00 1.195452000000000048e+01 1.087723000000000084e+01 3.962899999999999867e+00 1.007784000000000013e+01 1.142329999999999934e+01 9.830149999999999721e+00 1.086921000000000070e+01 1.002555000000000085e+01 1.361580000000000013e+01 9.430849999999999511e+00 1.265286000000000044e+01 1.361585000000000001e+01 1.154466000000000037e+01 1.196936999999999962e+01 1.569739000000000040e+01 1.277434000000000047e+01 1.265283999999999942e+01 1.361584000000000039e+01 1.342132999999999932e+01 1.142331000000000074e+01 9.830149999999999721e+00 1.488813999999999993e+01 1.196937999999999924e+01 1.569739000000000040e+01 9.077749999999999986e+00 1.613179999999999836e+01 3.962899999999999867e+00 1.051614000000000004e+01 1.350451999999999941e+01 3.962899999999999867e+00 8.402329999999999188e+00 1.418797999999999959e+01 1.881299999999999972e+00 9.869139999999999802e+00 1.473404999999999987e+01 7.748560000000000336e+00 1.242123999999999917e+01 1.613181000000000154e+01 3.962899999999999867e+00 1.054456000000000060e+01 1.667789000000000144e+01 9.830149999999999721e+00 1.198293999999999926e+01 1.405058999999999969e+01 9.830149999999999721e+00 1.201136999999999944e+01 1.722394999999999854e+01 1.569739000000000040e+01 1.344974999999999987e+01 1.459665000000000035e+01 1.569739000000000040e+01 1.133594000000000079e+01 1.528013999999999939e+01 1.361580000000000013e+01 1.388805999999999941e+01 1.667787999999999826e+01 9.830140000000000100e+00 1.535486000000000040e+01 1.722394999999999854e+01 1.569740000000000002e+01 8.861799999999999677e-01 2.023449999999999971e+00 2.922089999999999854e+00 1.515579999999999927e+00 3.951020000000000199e+00 4.817389999999999617e+00 2.162049999999999805e+00 2.723170000000000091e+00 1.026969999999999938e+00 2.569600000000000217e-01 9.582999999999999852e-02 1.026960000000000095e+00 2.953969999999999985e+00 1.323760000000000048e+00 4.817450000000000010e+00 4.229680000000000106e+00 2.023449999999999971e+00 2.922089999999999854e+00 4.859060000000000379e+00 3.951029999999999820e+00 4.817379999999999995e+00 3.600439999999999863e+00 9.582999999999999852e-02 1.026950000000000029e+00 2.353009999999999824e+00 2.569529999999999870e+00 8.789339999999999264e+00 3.628870000000000040e+00 3.269229999999999858e+00 6.894199999999999662e+00 1.723759999999999959e+00 6.419200000000000461e-01 6.894199999999999662e+00 5.696500000000000341e+00 2.569519999999999804e+00 8.789339999999999264e+00 5.067269999999999719e+00 6.419099999999999806e-01 6.894190000000000040e+00 2.982400000000000162e+00 4.497099999999999653e+00 1.068463000000000029e+01 4.420799999999999841e+00 1.869830000000000103e+00 1.068469999999999942e+01 6.325890000000000235e+00 4.497090000000000032e+00 1.068463999999999992e+01 3.819819999999999993e+00 3.115600000000000147e+00 1.465658999999999956e+01 4.449200000000000266e+00 5.043160000000000309e+00 1.655188000000000059e+01 5.095679999999999765e+00 3.815310000000000201e+00 1.276144999999999996e+01 3.190580000000000194e+00 1.187980000000000036e+00 1.276144999999999996e+01 5.887590000000000323e+00 2.415880000000000027e+00 1.655193999999999832e+01 7.163310000000000066e+00 3.115590000000000082e+00 1.465658999999999956e+01 7.792690000000000339e+00 5.043149999999999800e+00 1.655188000000000059e+01 6.534080000000000332e+00 1.187980000000000036e+00 1.276144999999999996e+01 5.533979999999999677e+00 5.896480000000000388e+00 6.894199999999999662e+00 2.791329999999999867e+00 4.650750000000000384e+00 2.922169999999999934e+00 1.352929999999999966e+00 7.278039999999999843e+00 2.922089999999999854e+00 7.236799999999999899e-01 5.350419999999999732e+00 1.026950000000000029e+00 3.420700000000000074e+00 6.578330000000000233e+00 4.817450000000000010e+00 4.696410000000000196e+00 7.278039999999999843e+00 2.922099999999999920e+00 4.067169999999999952e+00 5.350419999999999732e+00 1.026950000000000029e+00 4.258140000000000036e+00 5.196830000000000283e+00 8.789419999999999789e+00 2.819729999999999848e+00 7.824099999999999611e+00 8.789339999999999264e+00 2.190500000000000114e+00 5.896480000000000388e+00 6.894199999999999662e+00 6.163219999999999921e+00 7.824099999999999611e+00 8.789350000000000662e+00 7.000799999999999912e+00 6.442549999999999777e+00 1.276144999999999996e+01 7.630040000000000155e+00 8.370189999999999131e+00 1.465657999999999994e+01 4.887520000000000309e+00 7.124399999999999622e+00 1.068468000000000018e+01 5.724949999999999761e+00 5.742899999999999672e+00 1.465666000000000047e+01 4.286550000000000082e+00 8.370169999999999888e+00 1.465657999999999994e+01 3.657300000000000217e+00 6.442549999999999777e+00 1.276144000000000034e+01 6.354320000000000412e+00 7.670469999999999899e+00 1.655192999999999870e+01 6.000720000000000276e+00 1.115107000000000070e+01 6.894199999999999662e+00 1.982299999999999951e+00 9.205610000000000070e+00 4.817389999999999617e+00 2.628779999999999895e+00 7.977739999999999831e+00 1.026950000000000029e+00 3.258059999999999956e+00 9.905340000000000700e+00 2.922169999999999934e+00 5.325789999999999580e+00 9.205610000000000070e+00 4.817400000000000126e+00 1.190399999999999903e+00 1.060499000000000080e+01 1.026950000000000029e+00 3.887430000000000163e+00 1.183291000000000004e+01 4.817450000000000010e+00 4.533900000000000041e+00 1.060499000000000080e+01 1.026939999999999964e+00 4.095600000000000129e+00 8.523809999999999221e+00 6.894199999999999662e+00 4.724870000000000125e+00 1.045140999999999920e+01 8.789419999999999789e+00 2.657220000000000137e+00 1.115105999999999931e+01 6.894199999999999662e+00 7.467530000000000001e+00 1.169712999999999958e+01 1.276144000000000034e+01 6.821060000000000123e+00 1.292506000000000022e+01 1.655193999999999832e+01 3.449129999999999807e+00 9.751680000000000348e+00 1.068464999999999954e+01 6.792609999999999815e+00 9.751659999999999329e+00 1.068464999999999954e+01 5.354250000000000398e+00 1.237898000000000032e+01 1.068468999999999980e+01 4.915939999999999976e+00 1.029773999999999923e+01 1.655189000000000021e+01 5.562409999999999854e+00 9.069889999999999119e+00 1.276144999999999996e+01 6.191679999999999851e+00 1.099746999999999986e+01 1.465665000000000084e+01 8.259430000000000049e+00 1.029773999999999923e+01 1.655188000000000059e+01 4.124030000000000307e+00 1.169713999999999920e+01 1.276144999999999996e+01 6.629950000000000010e+00 1.307868999999999993e+01 8.789339999999999264e+00 1.819660000000000055e+00 1.253261999999999965e+01 2.922099999999999920e+00 2.449050000000000171e+00 1.446017999999999937e+01 4.817389999999999617e+00 3.095509999999999984e+00 1.323232999999999926e+01 1.026950000000000029e+00 3.724779999999999980e+00 1.515991999999999962e+01 2.922159999999999869e+00 5.163140000000000285e+00 1.253261999999999965e+01 2.922089999999999854e+00 5.792530000000000179e+00 1.446017999999999937e+01 4.817400000000000126e+00 3.286459999999999937e+00 1.307868999999999993e+01 8.789339999999999264e+00 4.562319999999999709e+00 1.377838999999999992e+01 6.894210000000000171e+00 5.191609999999999836e+00 1.570598000000000027e+01 8.789410000000000167e+00 8.726150000000000517e+00 1.555232999999999954e+01 1.655188000000000059e+01 8.096750000000000114e+00 1.362475000000000058e+01 1.465658999999999956e+01 3.915849999999999831e+00 1.500624000000000002e+01 1.068464999999999954e+01 7.259330000000000283e+00 1.500624999999999964e+01 1.068463999999999992e+01 4.753280000000000172e+00 1.362476000000000020e+01 1.465658999999999956e+01 5.382659999999999556e+00 1.555231999999999992e+01 1.655188000000000059e+01 6.029139999999999944e+00 1.432446000000000019e+01 1.276144999999999996e+01 6.658409999999999940e+00 1.625205000000000055e+01 1.465667000000000009e+01 8.410750000000000171e+00 6.419000000000000261e-01 6.894199999999999662e+00 5.505539999999999878e+00 2.723170000000000091e+00 1.026960000000000095e+00 6.297460000000000058e+00 1.323760000000000048e+00 4.817440000000000389e+00 7.573179999999999801e+00 2.023460000000000036e+00 2.922099999999999920e+00 8.202560000000000073e+00 3.951020000000000199e+00 4.817379999999999995e+00 8.849019999999999442e+00 2.723160000000000025e+00 1.026969999999999938e+00 6.943929999999999936e+00 9.583999999999999464e-02 1.026950000000000029e+00 9.640959999999999752e+00 1.323760000000000048e+00 4.817440000000000389e+00 6.972349999999999604e+00 3.269229999999999858e+00 6.894210000000000171e+00 9.039989999999999526e+00 2.569519999999999804e+00 8.789329999999999643e+00 1.031583999999999968e+01 3.269229999999999858e+00 6.894210000000000171e+00 1.257459000000000060e+01 2.415900000000000158e+00 1.655192999999999870e+01 9.877549999999999386e+00 1.187990000000000101e+00 1.276144000000000034e+01 7.764280000000000292e+00 1.869820000000000038e+00 1.068468999999999980e+01 9.669380000000000308e+00 4.497090000000000032e+00 1.068464999999999954e+01 1.110777999999999999e+01 1.869830000000000103e+00 1.068469999999999942e+01 8.439149999999999707e+00 3.815300000000000136e+00 1.276144999999999996e+01 9.231099999999999639e+00 2.415890000000000093e+00 1.655195000000000149e+01 1.050679000000000052e+01 3.115590000000000082e+00 1.465658999999999956e+01 1.113618999999999915e+01 5.043169999999999931e+00 1.655189000000000021e+01 1.178265999999999991e+01 3.815310000000000201e+00 1.276145999999999958e+01 8.877470000000000638e+00 5.896490000000000009e+00 6.894190000000000040e+00 6.134820000000000384e+00 4.650760000000000005e+00 2.922169999999999934e+00 9.478310000000000457e+00 4.650769999999999627e+00 2.922159999999999869e+00 6.764190000000000147e+00 6.578319999999999723e+00 4.817459999999999631e+00 8.039889999999999759e+00 7.278039999999999843e+00 2.922079999999999789e+00 7.410660000000000025e+00 5.350410000000000110e+00 1.026960000000000095e+00 1.010768999999999984e+01 6.578339999999999854e+00 4.817450000000000010e+00 7.601630000000000109e+00 5.196830000000000283e+00 8.789410000000000167e+00 1.094513000000000069e+01 5.196819999999999773e+00 8.789410000000000167e+00 9.506719999999999615e+00 7.824099999999999611e+00 8.789329999999999643e+00 1.304130999999999929e+01 7.670469999999999899e+00 1.655195000000000149e+01 1.034429000000000087e+01 6.442560000000000286e+00 1.276144999999999996e+01 8.231019999999999115e+00 7.124410000000000132e+00 1.068469999999999942e+01 1.157450000000000045e+01 7.124410000000000132e+00 1.068468999999999980e+01 9.068440000000000722e+00 5.742890000000000050e+00 1.465666000000000047e+01 1.241192999999999991e+01 5.742899999999999672e+00 1.465665000000000084e+01 9.697810000000000485e+00 7.670469999999999899e+00 1.655192999999999870e+01 1.097352000000000061e+01 8.370169999999999888e+00 1.465658999999999956e+01 5.972260000000000346e+00 7.977739999999999831e+00 1.026960000000000095e+00 6.601549999999999585e+00 9.905340000000000700e+00 2.922159999999999869e+00 8.669280000000000541e+00 9.205590000000000828e+00 4.817389999999999617e+00 9.315749999999999531e+00 7.977739999999999831e+00 1.026969999999999938e+00 9.945040000000000546e+00 9.905350000000000321e+00 2.922169999999999934e+00 7.230920000000000236e+00 1.183291000000000004e+01 4.817440000000000389e+00 7.877390000000000114e+00 1.060500000000000043e+01 1.026950000000000029e+00 1.057441000000000031e+01 1.183291000000000004e+01 4.817450000000000010e+00 7.439079999999999693e+00 8.523820000000000618e+00 6.894219999999999793e+00 8.068369999999999820e+00 1.045139999999999958e+01 8.789419999999999789e+00 1.078256999999999977e+01 8.523820000000000618e+00 6.894210000000000171e+00 1.141184999999999938e+01 1.045140999999999920e+01 8.789419999999999789e+00 9.344200000000000728e+00 1.115105999999999931e+01 6.894199999999999662e+00 1.013610000000000078e+01 9.751670000000000726e+00 1.068464999999999954e+01 8.697729999999999961e+00 1.237898000000000032e+01 1.068468999999999980e+01 1.204123000000000054e+01 1.237898999999999994e+01 1.068469999999999942e+01 8.905900000000000816e+00 9.069889999999999119e+00 1.276144999999999996e+01 9.535170000000000812e+00 1.099749000000000088e+01 1.465666000000000047e+01 1.160290999999999961e+01 1.029775000000000063e+01 1.655188000000000059e+01 1.224939000000000000e+01 9.069889999999999119e+00 1.276144999999999996e+01 1.287865000000000038e+01 1.099747999999999948e+01 1.465666000000000047e+01 1.016454000000000057e+01 1.292506000000000022e+01 1.655193999999999832e+01 1.081101999999999919e+01 1.169715000000000060e+01 1.276144000000000034e+01 1.350802000000000014e+01 1.292503999999999920e+01 1.655192999999999870e+01 1.187857999999999947e+01 1.570598999999999990e+01 8.789410000000000167e+00 6.439000000000000057e+00 1.323231999999999964e+01 1.026960000000000095e+00 7.068270000000000053e+00 1.515991000000000000e+01 2.922159999999999869e+00 8.506619999999999848e+00 1.253262999999999927e+01 2.922089999999999854e+00 9.136020000000000252e+00 1.446016999999999975e+01 4.817400000000000126e+00 9.782479999999999620e+00 1.323232999999999926e+01 1.026950000000000029e+00 1.041175999999999924e+01 1.515991000000000000e+01 2.922169999999999934e+00 7.905809999999999782e+00 1.377838999999999992e+01 6.894219999999999793e+00 8.535090000000000288e+00 1.570598999999999990e+01 8.789410000000000167e+00 9.973440000000000083e+00 1.307868000000000031e+01 8.789329999999999643e+00 1.124929000000000023e+01 1.377838999999999992e+01 6.894210000000000171e+00 1.334539999999999971e+01 1.625206000000000017e+01 1.465666000000000047e+01 1.271611000000000047e+01 1.432446999999999981e+01 1.276145999999999958e+01 1.060283000000000087e+01 1.500624999999999964e+01 1.068463999999999992e+01 9.372629999999999129e+00 1.432446999999999981e+01 1.276145999999999958e+01 1.000188999999999950e+01 1.625206000000000017e+01 1.465665000000000084e+01 1.144026000000000032e+01 1.362476000000000020e+01 1.465658999999999956e+01 1.206963999999999970e+01 1.555232999999999954e+01 1.655189000000000021e+01