-2.552469498909999857e+03
-2.552257050270000036e+03
-2.552115178879999803e+03
-2.552046123910000006e+03
-2.552053272369999831e+03
-2.552140907290000087e+03
-2.552314186430000063e+03
-2.552579118420000214e+03
-2.552942200720000073e+03
-2.553410344420000001e+03
