1.793520000000000114e-01 3.310750000000000082e-01 1.418646000000000074e+00 -1.803140000000000021e-01 -3.317240000000000189e-01 -1.416622000000000048e+00 -1.798140000000000016e-01 -3.327629999999999755e-01 -1.417955000000000076e+00 -1.804929999999999868e-01 -3.314880000000000049e-01 -1.416557999999999984e+00 -1.802999999999999881e-01 -3.320989999999999776e-01 -1.416957000000000022e+00 -1.797890000000000044e-01 -3.323360000000000203e-01 -1.416808000000000067e+00 -1.809360000000000135e-01 -3.313699999999999979e-01 -1.416757999999999962e+00 1.792469999999999897e-01 3.311819999999999764e-01 1.418581000000000092e+00 1.791439999999999977e-01 3.320919999999999983e-01 1.417991000000000001e+00 1.800569999999999948e-01 3.317399999999999793e-01 1.418825999999999921e+00 -1.804709999999999925e-01 -3.312720000000000109e-01 -1.416690999999999923e+00 -1.793049999999999922e-01 -3.329259999999999997e-01 -1.417643999999999904e+00 -1.802880000000000038e-01 -3.314960000000000129e-01 -1.416754000000000069e+00 1.792489999999999917e-01 3.318459999999999743e-01 1.418296000000000001e+00 1.801919999999999911e-01 3.317959999999999798e-01 1.418563999999999936e+00 1.789540000000000020e-01 3.315049999999999941e-01 1.418906999999999918e+00 -1.794789999999999996e-01 -3.327260000000000217e-01 -1.417268999999999890e+00 1.785490000000000133e-01 3.323570000000000135e-01 1.418026999999999926e+00 -1.794550000000000034e-01 -3.321080000000000143e-01 -1.417931999999999970e+00 1.786780000000000035e-01 3.314730000000000176e-01 1.418973999999999958e+00 1.792120000000000102e-01 3.308490000000000042e-01 1.419070999999999971e+00 1.787459999999999882e-01 3.308309999999999862e-01 1.418592999999999993e+00 1.797670000000000101e-01 3.299770000000000203e-01 1.418803999999999954e+00 -1.785799999999999887e-01 -3.327959999999999807e-01 -1.417804999999999982e+00 1.789030000000000065e-01 3.308699999999999974e-01 1.417993999999999977e+00 1.791820000000000079e-01 3.309949999999999837e-01 1.419329999999999981e+00 1.797150000000000136e-01 3.303249999999999797e-01 1.418436000000000030e+00 -1.814600000000000102e-01 -3.319340000000000068e-01 -1.416280999999999901e+00 -1.810950000000000060e-01 -3.321109999999999896e-01 -1.416481000000000101e+00 -1.792860000000000009e-01 -3.316149999999999931e-01 -1.417286999999999964e+00 1.785660000000000025e-01 3.317849999999999966e-01 1.418932000000000082e+00 -1.806200000000000028e-01 -3.313659999999999939e-01 -1.416234999999999911e+00 -1.812139999999999862e-01 -3.315949999999999731e-01 -1.415399000000000074e+00 -1.796790000000000054e-01 -3.324469999999999925e-01 -1.417923000000000044e+00 1.792110000000000092e-01 3.316649999999999876e-01 1.418149000000000104e+00 -1.806190000000000018e-01 -3.323309999999999875e-01 -1.417051999999999978e+00 -1.800219999999999876e-01 -3.325080000000000258e-01 -1.417378999999999944e+00 -1.794509999999999994e-01 -3.320509999999999851e-01 -1.417481999999999909e+00 1.794219999999999982e-01 3.326200000000000268e-01 1.418908999999999976e+00 1.782930000000000070e-01 3.321109999999999896e-01 1.419119000000000019e+00 1.793839999999999879e-01 3.313550000000000106e-01 1.418212000000000028e+00 -1.807100000000000095e-01 -3.318820000000000103e-01 -1.416673000000000071e+00 -1.804659999999999875e-01 -3.315460000000000074e-01 -1.416862999999999984e+00 -1.804840000000000055e-01 -3.320370000000000266e-01 -1.417243000000000031e+00 -1.805849999999999955e-01 -3.317829999999999946e-01 -1.417418000000000067e+00 1.794729999999999936e-01 3.312209999999999877e-01 1.418328999999999951e+00 1.786260000000000070e-01 3.314659999999999829e-01 1.418938000000000033e+00 1.789060000000000095e-01 3.303730000000000278e-01 1.418306000000000067e+00 1.790009999999999935e-01 3.312669999999999781e-01 1.418703000000000047e+00 1.794789999999999996e-01 3.301040000000000085e-01 1.418122000000000105e+00 -1.802269999999999983e-01 -3.319739999999999913e-01 -1.416379999999999972e+00 -1.798319999999999919e-01 -3.314540000000000264e-01 -1.416786000000000101e+00 1.787300000000000000e-01 3.303940000000000210e-01 1.418506999999999962e+00 1.793929999999999969e-01 3.304880000000000040e-01 1.417913999999999897e+00 -1.799040000000000084e-01 -3.330130000000000035e-01 -1.417740000000000000e+00 1.792449999999999877e-01 3.315750000000000086e-01 1.418374999999999941e+00 -1.804149999999999920e-01 -3.320460000000000078e-01 -1.416349999999999998e+00 -1.801000000000000101e-01 -3.328909999999999925e-01 -1.417693000000000092e+00 -1.796800000000000064e-01 -3.320290000000000186e-01 -1.417103999999999919e+00 -1.807130000000000125e-01 -3.312939999999999774e-01 -1.416868999999999934e+00 -1.796750000000000014e-01 -3.322039999999999993e-01 -1.416797000000000084e+00 1.794389999999999874e-01 3.316979999999999928e-01 1.417801000000000089e+00 -1.794759999999999966e-01 -3.322180000000000133e-01 -1.417840999999999907e+00 1.799790000000000001e-01 3.318400000000000238e-01 1.418678000000000106e+00 -1.802449999999999886e-01 -3.318220000000000058e-01 -1.416879999999999917e+00 -1.799689999999999901e-01 -3.323209999999999775e-01 -1.417351999999999945e+00 -1.800599999999999978e-01 -3.320029999999999926e-01 -1.417241999999999891e+00 1.784469999999999945e-01 3.323220000000000063e-01 1.418361999999999901e+00 1.790730000000000099e-01 3.312700000000000089e-01 1.418849999999999945e+00 -1.799179999999999946e-01 -3.323760000000000048e-01 -1.417119000000000018e+00 -1.793679999999999997e-01 -3.324590000000000045e-01 -1.417583999999999955e+00 -1.791439999999999977e-01 -3.323889999999999900e-01 -1.417826999999999948e+00 1.787050000000000027e-01 3.323670000000000235e-01 1.418179999999999996e+00 1.781480000000000008e-01 3.309869999999999757e-01 1.418924999999999992e+00 1.791310000000000124e-01 3.309699999999999864e-01 1.419097000000000053e+00 -1.789800000000000002e-01 -3.321569999999999800e-01 -1.417818000000000023e+00 1.790700000000000069e-01 3.304860000000000020e-01 1.417891999999999930e+00 1.797330000000000039e-01 3.299830000000000263e-01 1.418763999999999914e+00 -1.790080000000000005e-01 -3.322869999999999990e-01 -1.417629000000000028e+00 1.778839999999999866e-01 3.315150000000000041e-01 1.418773000000000062e+00 1.788679999999999992e-01 3.307309999999999972e-01 1.418163000000000062e+00 -1.814600000000000102e-01 -3.318400000000000238e-01 -1.416474999999999929e+00 -1.794159999999999922e-01 -3.317979999999999818e-01 -1.416997000000000062e+00 1.785940000000000027e-01 3.317200000000000149e-01 1.418948000000000098e+00 -1.800980000000000081e-01 -3.310500000000000109e-01 -1.417011000000000021e+00 -1.803810000000000136e-01 -3.318479999999999763e-01 -1.415769000000000055e+00 -1.795229999999999881e-01 -3.326879999999999837e-01 -1.417578999999999922e+00 -1.795559999999999934e-01 -3.328470000000000040e-01 -1.417618999999999962e+00 1.783279999999999865e-01 3.322220000000000173e-01 1.419159000000000059e+00 1.784239999999999993e-01 3.324449999999999905e-01 1.418344000000000049e+00 -1.801010000000000111e-01 -3.324829999999999730e-01 -1.417435999999999918e+00 -1.790710000000000079e-01 -3.319810000000000261e-01 -1.417761000000000049e+00 1.789989999999999915e-01 3.330029999999999935e-01 1.419081000000000037e+00 -1.793839999999999879e-01 -3.316319999999999824e-01 -1.417763000000000106e+00 1.784189999999999943e-01 3.322789999999999910e-01 1.418385000000000007e+00 1.793810000000000127e-01 3.323019999999999863e-01 1.418943999999999983e+00 1.784040000000000070e-01 3.317280000000000229e-01 1.419002000000000097e+00 1.790120000000000045e-01 3.313050000000000161e-01 1.418352999999999975e+00 -1.808760000000000090e-01 -3.311319999999999819e-01 -1.416673000000000071e+00 -1.806000000000000105e-01 -3.320159999999999778e-01 -1.417170000000000041e+00 1.783820000000000128e-01 3.318280000000000118e-01 1.418935999999999975e+00 1.786169999999999980e-01 3.314300000000000024e-01 1.418971999999999900e+00 1.790760000000000129e-01 3.301040000000000085e-01 1.418255000000000043e+00 1.792199999999999904e-01 3.310899999999999954e-01 1.418541999999999970e+00 1.792690000000000117e-01 3.305020000000000180e-01 1.417947000000000068e+00 -1.797759999999999914e-01 -3.318380000000000218e-01 -1.416568000000000049e+00 1.782449999999999868e-01 3.317669999999999786e-01 1.419022000000000006e+00 1.792849999999999999e-01 3.311859999999999804e-01 1.418336999999999959e+00 6.440000000000000412e-04 -2.066999999999999827e-03 1.520000000000000084e-04 -3.665166999999999842e+00 -1.959206000000000003e+00 4.869380999999999737e+00 3.666452000000000044e+00 1.959381000000000039e+00 -4.871709000000000067e+00 3.664594000000000129e+00 1.960399000000000003e+00 -4.870747999999999855e+00 -3.663974000000000064e+00 -1.960282000000000080e+00 4.867375000000000007e+00 4.640000000000000027e-04 -1.855000000000000095e-03 3.710000000000000190e-04 -3.665287000000000184e+00 -1.959500000000000020e+00 4.869650000000000034e+00 3.664559000000000122e+00 1.960326000000000013e+00 -4.870715999999999823e+00 -1.990000000000000124e-04 -7.860000000000000233e-04 1.562999999999999936e-03 3.666316999999999826e+00 1.960730000000000084e+00 -4.870607999999999826e+00 3.665344999999999853e+00 1.958730000000000082e+00 -4.869759000000000171e+00 -1.420000000000000092e-04 -6.210000000000000242e-04 1.199999999999999895e-03 3.665118000000000098e+00 1.958927000000000085e+00 -4.869754999999999612e+00 -3.665486000000000022e+00 -1.958237000000000005e+00 4.871716000000000157e+00 -3.665424999999999933e+00 -1.958269000000000037e+00 4.869435000000000180e+00 -3.665237999999999996e+00 -1.958075000000000010e+00 4.871291000000000260e+00 6.499999999999999431e-05 -1.312000000000000015e-03 1.748999999999999904e-03 -3.665068000000000215e+00 -1.959853000000000067e+00 4.869458999999999982e+00 3.666136999999999979e+00 1.960838000000000081e+00 -4.872173000000000087e+00 3.665544000000000135e+00 1.961198999999999915e+00 -4.870707000000000342e+00 -3.664441000000000059e+00 -1.959202000000000110e+00 4.869174000000000113e+00 -3.899999999999999929e-04 -1.415000000000000025e-03 2.210999999999999858e-03 -3.665306000000000175e+00 -1.959642000000000106e+00 4.869386999999999688e+00 3.665334999999999788e+00 1.961012999999999895e+00 -4.870169999999999888e+00 3.664699000000000151e+00 1.961873999999999896e+00 -4.869606000000000101e+00 1.337999999999999997e-03 2.709999999999999735e-04 -1.268000000000000030e-03 1.640000000000000019e-04 -2.860000000000000129e-04 2.442999999999999859e-03 3.665357000000000198e+00 1.959807999999999995e+00 -4.870886999999999745e+00 -3.664584000000000064e+00 -1.957611999999999908e+00 4.868471999999999689e+00 5.529999999999999976e-04 -3.179999999999999776e-04 1.975000000000000193e-03 3.665065999999999935e+00 1.959839000000000109e+00 -4.870741999999999905e+00 1.528000000000000061e-03 9.079999999999999530e-04 -4.180000000000000230e-04 7.429999999999999539e-04 -3.559999999999999797e-04 1.381999999999999982e-03 3.664906000000000219e+00 1.962434000000000012e+00 -4.869828000000000046e+00 7.060000000000000303e-04 1.100000000000000039e-04 1.012000000000000096e-03 3.664734000000000158e+00 1.962123999999999979e+00 -4.871991999999999656e+00 -3.499999999999999693e-05 -1.745999999999999939e-03 3.199999999999999855e-05 -3.665176000000000212e+00 -1.958242000000000038e+00 4.870832000000000050e+00 1.180999999999999975e-03 -1.379999999999999933e-04 -2.077999999999999986e-03 -5.619999999999999996e-04 -1.188000000000000037e-03 -3.000000000000000076e-06 3.664782999999999902e+00 1.961754999999999916e+00 -4.871980999999999895e+00 -3.664842000000000155e+00 -1.959230999999999945e+00 4.868535999999999753e+00 3.664768000000000026e+00 1.961017000000000010e+00 -4.870709999999999873e+00 -3.665271000000000168e+00 -1.958167999999999909e+00 4.871476999999999613e+00 3.666020000000000056e+00 1.960177999999999976e+00 -4.871255999999999808e+00 2.056999999999999801e-03 9.529999999999999626e-04 -8.100000000000000375e-05 -3.664680000000000160e+00 -1.957932000000000006e+00 4.870529999999999582e+00 3.665751999999999899e+00 1.961950000000000083e+00 -4.870237000000000371e+00 -3.664683000000000135e+00 -1.958817999999999948e+00 4.869463999999999793e+00 3.665432000000000023e+00 1.961953999999999976e+00 -4.869806999999999775e+00 3.665906999999999805e+00 1.961111000000000049e+00 -4.870373999999999981e+00 1.788000000000000093e-03 -2.750000000000000166e-04 -2.557999999999999944e-03 3.665322999999999887e+00 1.960828999999999933e+00 -4.870703999999999922e+00 3.665366000000000124e+00 1.959124000000000088e+00 -4.871980999999999895e+00 -3.664627999999999997e+00 -1.958185000000000064e+00 4.868313999999999808e+00 -3.665779999999999816e+00 -1.959613000000000049e+00 4.870998000000000161e+00 -3.665769000000000055e+00 -1.959368999999999916e+00 4.870898000000000394e+00 -3.664972999999999814e+00 -1.960984000000000060e+00 4.868967999999999741e+00 -3.665503999999999873e+00 -1.958806999999999965e+00 4.869551999999999659e+00 3.665750000000000064e+00 1.959073000000000064e+00 -4.873236999999999597e+00 9.210000000000000521e-04 -1.269999999999999970e-04 -9.370000000000000074e-04 -3.665178000000000047e+00 -1.958847999999999923e+00 4.869666999999999746e+00 3.665496999999999783e+00 1.958727000000000107e+00 -4.872094999999999843e+00 -6.000000000000000152e-06 -1.879000000000000028e-03 -5.119999999999999768e-04 1.500000000000000038e-05 -9.089999999999999773e-04 2.601000000000000013e-03 -3.664937999999999807e+00 -1.959921999999999942e+00 4.869138000000000410e+00 3.665404000000000106e+00 1.960331000000000046e+00 -4.870885000000000353e+00 1.513000000000000022e-03 -1.464000000000000024e-03 -6.759999999999999516e-04 -5.060000000000000478e-04 -1.281999999999999936e-03 3.275999999999999832e-03 -3.664892000000000039e+00 -1.959893000000000107e+00 4.869349999999999845e+00 2.809999999999999998e-04 -1.838000000000000007e-03 -1.103999999999999947e-03 3.665353000000000083e+00 1.958720999999999934e+00 -4.871192999999999884e+00 1.490999999999999921e-03 -1.299999999999999940e-03 -1.810999999999999893e-03 -3.665589000000000208e+00 -1.958978000000000108e+00 4.871011000000000202e+00 -8.100000000000000375e-05 -1.048000000000000103e-03 2.059000000000000066e-03 -3.665395000000000181e+00 -1.959826000000000068e+00 4.869527999999999857e+00 -3.664895000000000014e+00 -1.960142999999999969e+00 4.869693999999999967e+00 2.439999999999999949e-04 -9.510000000000000224e-04 1.521999999999999915e-03 -3.665418999999999983e+00 -1.958547999999999956e+00 4.871245000000000047e+00 3.665916000000000174e+00 1.960085000000000077e+00 -4.871143000000000001e+00 9.529999999999999626e-04 -1.060000000000000016e-04 -1.499999999999999869e-04 3.664925999999999906e+00 1.958893999999999913e+00 -4.869492000000000154e+00 3.666457999999999995e+00 1.959405999999999981e+00 -4.871555999999999997e+00 -3.664318999999999882e+00 -1.960255000000000081e+00 4.867694000000000187e+00 6.809999999999999647e-04 -2.106999999999999932e-03 1.019999999999999992e-04 -3.665262999999999938e+00 -1.958930999999999978e+00 4.869284999999999641e+00 3.666751999999999789e+00 1.959545000000000092e+00 -4.871710000000000207e+00 3.664843999999999991e+00 1.960247000000000073e+00 -4.870606000000000435e+00 -3.664152000000000076e+00 -1.960313999999999890e+00 4.867547000000000068e+00 3.666291000000000189e+00 1.960388999999999937e+00 -4.870512999999999870e+00 -2.730000000000000222e-04 -7.519999999999999558e-04 1.856000000000000011e-03 3.666420000000000012e+00 1.960456999999999894e+00 -4.870664999999999800e+00 -3.664728000000000208e+00 -1.959416000000000047e+00 4.869952999999999754e+00 3.665502000000000038e+00 1.961149999999999949e+00 -4.870561999999999614e+00 -3.665154999999999941e+00 -1.958056999999999936e+00 4.869273999999999880e+00 -3.665452999999999850e+00 -1.957684999999999897e+00 4.871266999999999570e+00 -3.665291999999999994e+00 -1.958247000000000071e+00 4.869335000000000413e+00 3.666399999999999881e+00 1.960890999999999940e+00 -4.872099000000000402e+00 -3.664791000000000132e+00 -1.959433999999999898e+00 4.869322999999999624e+00 1.830000000000000029e-04 -1.090999999999999956e-03 1.183000000000000024e-03 -3.665178000000000047e+00 -1.959878000000000009e+00 4.869240999999999708e+00 3.665950000000000042e+00 1.960914999999999964e+00 -4.872022000000000297e+00 3.664773999999999976e+00 1.961740999999999957e+00 -4.869501999999999775e+00 1.118000000000000070e-03 -1.579999999999999916e-04 -7.560000000000000530e-04 1.110000000000000092e-03 -4.490000000000000176e-04 -3.240000000000000150e-04 -3.664395999999999987e+00 -1.957287999999999917e+00 4.868059999999999832e+00 -3.499999999999999693e-05 -5.259999999999999919e-04 2.655999999999999941e-03 3.665115999999999818e+00 1.960131999999999985e+00 -4.871165999999999663e+00 -3.664496999999999893e+00 -1.957497999999999960e+00 4.868457000000000257e+00 1.144999999999999967e-03 1.585999999999999953e-03 -7.499999999999999343e-05 8.149999999999999693e-04 1.440000000000000091e-03 3.170000000000000075e-04 5.199999999999999544e-04 1.469999999999999953e-04 1.716000000000000077e-03 -3.664801999999999893e+00 -1.959120999999999890e+00 4.868227000000000082e+00 3.664801999999999893e+00 1.961873999999999896e+00 -4.871872999999999898e+00 -3.664620999999999906e+00 -1.958523999999999932e+00 4.870269000000000403e+00 -3.664553000000000171e+00 -1.958490000000000064e+00 4.870091999999999643e+00 1.209999999999999921e-03 -2.429999999999999977e-04 -1.879999999999999944e-03 1.281000000000000021e-03 -1.990000000000000124e-04 -1.773999999999999969e-03 -3.665033000000000207e+00 -1.959313000000000082e+00 4.868718999999999575e+00 3.049999999999999868e-04 -1.231000000000000106e-03 -7.519999999999999558e-04 3.665588000000000068e+00 1.960234000000000032e+00 -4.870775000000000077e+00 1.430999999999999980e-03 5.940000000000000184e-04 7.550000000000000287e-04 -3.665129999999999999e+00 -1.957518000000000091e+00 4.870699000000000112e+00 3.665942999999999952e+00 1.960434999999999928e+00 -4.871707999999999927e+00 1.526999999999999929e-03 6.120000000000000223e-04 7.039999999999999817e-04 -3.664655999999999914e+00 -1.958893999999999913e+00 4.869302000000000241e+00 3.665493000000000112e+00 1.961978999999999917e+00 -4.869710999999999679e+00 -3.664604000000000195e+00 -1.958803999999999990e+00 4.869277000000000299e+00 3.666196999999999928e+00 1.960682999999999954e+00 -4.870538999999999952e+00 1.010999999999999963e-03 4.530000000000000064e-04 -1.861999999999999940e-03 3.666278999999999844e+00 1.961063999999999918e+00 -4.870587000000000444e+00 1.601999999999999908e-03 -6.499999999999999431e-05 -2.469999999999999973e-03 3.665480000000000071e+00 1.961065000000000058e+00 -4.870824999999999960e+00 -3.665661000000000058e+00 -1.959670999999999941e+00 4.870864000000000082e+00 -3.664674999999999905e+00 -1.960781000000000107e+00 4.868484999999999729e+00 -3.664557999999999982e+00 -1.960971999999999937e+00 4.868661000000000350e+00 3.665980999999999934e+00 1.959082999999999908e+00 -4.872747000000000384e+00 1.067000000000000023e-03 -6.800000000000000488e-04 -6.970000000000000284e-04 -3.664951999999999988e+00 -1.958992999999999984e+00 4.869350999999999985e+00 3.665665999999999869e+00 1.959116999999999997e+00 -4.872665999999999720e+00 1.688999999999999963e-03 -9.920000000000000432e-04 -1.484000000000000076e-03 -3.664470999999999812e+00 -1.958385000000000042e+00 4.868203000000000280e+00 3.665303999999999895e+00 1.958781000000000105e+00 -4.871796999999999933e+00 -3.664613000000000120e+00 -1.958382000000000067e+00 4.868490000000000428e+00 1.794000000000000022e-03 -1.325000000000000006e-03 -1.810999999999999893e-03 3.665531999999999790e+00 1.960612999999999939e+00 -4.871025000000000382e+00 1.673000000000000008e-03 -1.172999999999999998e-03 -9.859999999999998974e-04 1.830000000000000029e-04 -1.505000000000000044e-03 2.967000000000000019e-03 -3.664753000000000149e+00 -1.959805000000000019e+00 4.868623999999999619e+00 3.665801999999999783e+00 1.960193999999999992e+00 -4.870875999999999983e+00 1.588000000000000002e-03 -1.348000000000000023e-03 -9.449999999999999850e-04 3.665613000000000010e+00 1.958671999999999969e+00 -4.871509999999999785e+00 1.538000000000000088e-03 -1.611999999999999935e-03 -1.476000000000000098e-03 -1.279999999999999942e-04 -1.897000000000000032e-03 -4.409999999999999858e-04 3.665691999999999950e+00 1.958665000000000100e+00 -4.871570000000000178e+00 9.700000000000000505e-04 -5.580000000000000107e-04 1.450000000000000009e-04 3.665907999999999944e+00 1.959994999999999932e+00 -4.871125000000000149e+00 -3.665507999999999988e+00 -1.959610999999999992e+00 4.869852999999999987e+00 3.665969000000000033e+00 1.960102999999999929e+00 -4.871406000000000347e+00 7.439999999999999782e-04 -8.490000000000000368e-04 8.390000000000000105e-04 -9.399999999999999448e-05 -8.660000000000000163e-04 2.191999999999999938e-03 -3.665678999999999910e+00 -1.958819000000000088e+00 4.871087000000000167e+00