-1.412881070169999930e+03
-1.412881071680000105e+03
-1.412881074489999946e+03
-1.412881078870000010e+03
-1.412881084899999905e+03
