9.310233500000000717e+00 0.000000000000000000e+00 0.000000000000000000e+00 0.000000000000000000e+00 1.615095021847294987e+01 5.875707264513495160e-17 0.000000000000000000e+00 1.208233664133482765e+00 2.162421794076441373e+01
9.310233500000000717e+00 0.000000000000000000e+00 0.000000000000000000e+00 0.000000000000000000e+00 1.615095021847294987e+01 5.875707264513495160e-17 0.000000000000000000e+00 1.208233664133482765e+00 2.162421794076441373e+01
9.310233500000000717e+00 0.000000000000000000e+00 0.000000000000000000e+00 0.000000000000000000e+00 1.615095021847294987e+01 5.875707264513495160e-17 0.000000000000000000e+00 1.208233664133482765e+00 2.162421794076441373e+01
9.310233500000000717e+00 0.000000000000000000e+00 0.000000000000000000e+00 0.000000000000000000e+00 1.615095021847294987e+01 5.875707264513495160e-17 0.000000000000000000e+00 1.208233664133482765e+00 2.162421794076441373e+01
9.310233500000000717e+00 0.000000000000000000e+00 0.000000000000000000e+00 0.000000000000000000e+00 1.615095021847294987e+01 5.875707264513495160e-17 0.000000000000000000e+00 1.208233664133482765e+00 2.162421794076441373e+01
