1.299999999999999886e-04 1.636671356078275608e+01 4.868250156605539836e+00 1.551830000000000043e+00 2.907583251903919752e+00 4.868245785809075521e+00 1.299999999999999886e-04 3.774406846424359419e+00 2.311626771489057042e+00 1.551830000000000043e+00 1.082585336290186717e+00 2.311635658608307331e+00 3.103540000000000187e+00 1.636671356078275608e+01 4.868250156605539836e+00 4.655240000000000045e+00 2.907583251903919752e+00 4.868245785809075521e+00 3.103540000000000187e+00 3.774406846424359419e+00 2.311626771489057042e+00 4.655249999999999666e+00 1.082585336290186717e+00 2.311635658608307331e+00 6.206949999999999967e+00 1.636671356078275608e+01 4.868250156605539836e+00 7.758659999999999890e+00 2.907583251903919752e+00 4.868245785809075521e+00 6.206949999999999967e+00 3.774406846424359419e+00 2.311626771489057042e+00 7.758659999999999890e+00 1.082585336290186717e+00 2.311635658608307331e+00 1.299999999999999886e-04 5.599405319908934864e+00 4.868246883116705170e+00 1.551830000000000043e+00 8.291236814469987948e+00 4.868237438126612915e+00 1.299999999999999886e-04 9.158060966861269137e+00 2.311628408233473930e+00 1.551830000000000043e+00 6.466239456727096879e+00 2.311637295352724220e+00 3.103540000000000187e+00 5.599405319908934864e+00 4.868246883116705170e+00 4.655240000000000045e+00 8.291236814469987948e+00 4.868237438126612915e+00 3.103540000000000187e+00 9.158060966861269137e+00 2.311628408233473930e+00 4.655249999999999666e+00 6.466239456727096879e+00 2.311637295352724220e+00 6.206949999999999967e+00 5.599405319908934864e+00 4.868246883116705170e+00 7.758659999999999890e+00 8.291236814469987948e+00 4.868237438126612915e+00 6.206949999999999967e+00 9.158060966861269137e+00 2.311628408233473930e+00 7.758659999999999890e+00 6.466239456727096879e+00 2.311637295352724220e+00 1.299999999999999886e-04 1.098305944034584414e+01 4.868248519861122503e+00 1.551830000000000043e+00 1.367488095048001639e+01 4.868239632741872214e+00 1.299999999999999886e-04 1.454171452942733644e+01 2.311620060551011324e+00 1.551830000000000043e+00 1.184988303486628425e+01 2.311629505541103580e+00 3.103540000000000187e+00 1.098305944034584414e+01 4.868248519861122503e+00 4.655240000000000045e+00 1.367488095048001639e+01 4.868239632741872214e+00 3.103540000000000187e+00 1.454171452942733644e+01 2.311620060551011324e+00 4.655249999999999666e+00 1.184988303486628425e+01 2.311629505541103580e+00 6.206949999999999967e+00 1.098305944034584414e+01 4.868248519861122503e+00 7.758659999999999890e+00 1.367488095048001639e+01 4.868239632741872214e+00 6.206949999999999967e+00 1.454171452942733644e+01 2.311620060551011324e+00 7.758659999999999890e+00 1.184988303486628425e+01 2.311629505541103580e+00 1.299999999999999886e-04 1.676945781573131455e+01 1.207631743856163276e+01 1.551830000000000043e+00 3.310327506852481783e+00 1.207631306776517022e+01 1.299999999999999886e-04 4.177151101372921005e+00 9.519694053445151738e+00 1.551830000000000043e+00 1.485329591238748526e+00 9.519702940564402027e+00 3.103540000000000187e+00 1.676945781573131455e+01 1.207631743856163276e+01 4.655240000000000045e+00 3.310327506852481783e+00 1.207631306776517022e+01 3.103540000000000187e+00 4.177151101372921005e+00 9.519694053445151738e+00 4.655249999999999666e+00 1.485329591238748526e+00 9.519702940564402027e+00 6.206949999999999967e+00 1.676945781573131455e+01 1.207631743856163276e+01 7.758659999999999890e+00 3.310327506852481783e+00 1.207631306776517022e+01 6.206949999999999967e+00 4.177151101372921005e+00 9.519694053445151738e+00 7.758659999999999890e+00 1.485329591238748526e+00 9.519702940564402027e+00 1.299999999999999886e-04 6.002150132728337972e+00 1.207632414949967981e+01 1.551830000000000043e+00 8.693981627289392833e+00 1.207631470450958666e+01 1.299999999999999886e-04 9.560805221809831167e+00 9.519695690189568182e+00 1.551830000000000043e+00 6.868983711675658910e+00 9.519704577308820248e+00 3.103540000000000187e+00 6.002150132728337972e+00 1.207632414949967981e+01 4.655240000000000045e+00 8.693981627289392833e+00 1.207631470450958666e+01 3.103540000000000187e+00 9.560805221809831167e+00 9.519695690189568182e+00 4.655249999999999666e+00 6.868983711675658910e+00 9.519704577308820248e+00 6.206949999999999967e+00 6.002150132728337972e+00 1.207632414949967981e+01 7.758659999999999890e+00 8.693981627289392833e+00 1.207631470450958666e+01 6.206949999999999967e+00 9.560805221809831167e+00 9.519695690189568182e+00 7.758659999999999890e+00 6.868983711675658910e+00 9.519704577308820248e+00 1.299999999999999886e-04 1.138580425316524725e+01 1.207632578624409803e+01 1.551830000000000043e+00 1.407762576329942128e+01 1.207631689912484596e+01 1.299999999999999886e-04 1.494445934224673955e+01 9.519697326933986403e+00 1.551830000000000043e+00 1.225262784768568913e+01 9.519706771924079547e+00 3.103540000000000187e+00 1.138580425316524725e+01 1.207632578624409803e+01 4.655240000000000045e+00 1.407762576329942128e+01 1.207631689912484596e+01 3.103540000000000187e+00 1.494445934224673955e+01 9.519697326933986403e+00 4.655249999999999666e+00 1.225262784768568913e+01 9.519706771924079547e+00 6.206949999999999967e+00 1.138580425316524725e+01 1.207632578624409803e+01 7.758659999999999890e+00 1.407762576329942128e+01 1.207631689912484596e+01 6.206949999999999967e+00 1.494445934224673955e+01 9.519697326933986403e+00 7.758659999999999890e+00 1.225262784768568913e+01 9.519706771924079547e+00 1.299999999999999886e-04 1.717220262855072122e+01 1.928439470494461006e+01 1.551830000000000043e+00 3.713072319671885779e+00 1.928439033414814574e+01 1.299999999999999886e-04 4.579895914192325002e+00 1.672777131982812548e+01 1.551830000000000043e+00 1.888074404058152300e+00 1.672778020694737577e+01 3.103540000000000187e+00 1.717220262855072122e+01 1.928439470494461006e+01 4.655240000000000045e+00 3.713072319671885779e+00 1.928439033414814574e+01 3.103540000000000187e+00 4.579895914192325002e+00 1.672777131982812548e+01 4.655249999999999666e+00 1.888074404058152300e+00 1.672778020694737577e+01 6.206949999999999967e+00 1.717220262855072122e+01 1.928439470494461006e+01 7.758659999999999890e+00 3.713072319671885779e+00 1.928439033414814574e+01 6.206949999999999967e+00 4.579895914192325002e+00 1.672777131982812548e+01 7.758659999999999890e+00 1.888074404058152300e+00 1.672778020694737577e+01 1.299999999999999886e-04 6.404894387676900003e+00 1.928439143145577361e+01 1.551830000000000043e+00 9.096726440108795941e+00 1.928439197089256041e+01 1.299999999999999886e-04 9.963550034629236052e+00 1.672777295657254371e+01 1.551830000000000043e+00 7.271728524495062906e+00 1.672778184369179399e+01 3.103540000000000187e+00 6.404894387676900003e+00 1.928439143145577361e+01 4.655240000000000045e+00 9.096726440108795941e+00 1.928439197089256041e+01 3.103540000000000187e+00 9.963550034629236052e+00 1.672777295657254371e+01 4.655249999999999666e+00 7.271728524495062906e+00 1.672778184369179399e+01 6.206949999999999967e+00 6.404894387676900003e+00 1.928439143145577361e+01 7.758659999999999890e+00 9.096726440108795941e+00 1.928439197089256041e+01 6.206949999999999967e+00 9.963550034629236052e+00 1.672777295657254371e+01 7.758659999999999890e+00 7.271728524495062906e+00 1.672778184369179399e+01 1.299999999999999886e-04 1.178854850811380928e+01 1.928439306820019183e+01 1.551830000000000043e+00 1.448037001824798331e+01 1.928438418108093799e+01 1.299999999999999886e-04 1.534720359719530158e+01 1.672776460889008021e+01 1.551830000000000043e+00 1.265537266050509224e+01 1.672778403830705329e+01 3.103540000000000187e+00 1.178854850811380928e+01 1.928439306820019183e+01 4.655240000000000045e+00 1.448037001824798331e+01 1.928438418108093799e+01 3.103540000000000187e+00 1.534720359719530158e+01 1.672776460889008021e+01 4.655249999999999666e+00 1.265537266050509224e+01 1.672778403830705329e+01 6.206949999999999967e+00 1.178854850811380928e+01 1.928439306820019183e+01 7.758659999999999890e+00 1.448037001824798331e+01 1.928438418108093799e+01 6.206949999999999967e+00 1.534720359719530158e+01 1.672776460889008021e+01 7.758659999999999890e+00 1.265537266050509224e+01 1.672778403830705329e+01 1.299999999999999886e-04 1.995100386479057741e+00 3.589959854256188354e+00 1.299999999999999886e-04 3.811915266441183725e+00 5.915686932214435423e+00 1.551840000000000108e+00 2.870083700572291452e+00 1.264165098359094852e+00 1.299999999999999886e-04 1.782716169941566120e-01 1.264163443180623236e+00 1.551830000000000043e+00 4.686921896613230665e+00 3.589950967136937621e+00 1.551830000000000043e+00 1.120093198436168391e+00 5.915685834906805773e+00 3.103540000000000187e+00 1.995100386479057741e+00 3.589959854256188354e+00 3.103540000000000187e+00 3.811915266441183725e+00 5.915686932214435423e+00 4.655249999999999666e+00 2.870083700572291452e+00 1.264165098359094852e+00 3.103540000000000187e+00 1.782716169941566120e-01 1.264163443180623236e+00 4.655240000000000045e+00 4.686921896613230665e+00 3.589950967136937621e+00 4.655249999999999666e+00 1.120093198436168391e+00 5.915685834906805773e+00 6.206949999999999967e+00 1.995100386479057741e+00 3.589959854256188354e+00 6.206949999999999967e+00 3.811915266441183725e+00 5.915686932214435423e+00 7.758659999999999890e+00 2.870083700572291452e+00 1.264165098359094852e+00 6.206949999999999967e+00 1.782716169941566120e-01 1.264163443180623236e+00 7.758650000000000269e+00 4.686921896613230665e+00 3.589950967136937621e+00 7.758659999999999890e+00 1.120093198436168391e+00 5.915685834906805773e+00 1.299999999999999886e-04 7.378753949045125715e+00 3.589951506573725304e+00 1.299999999999999886e-04 9.195558844580370206e+00 5.915679142402814783e+00 1.551840000000000108e+00 8.253737821009201170e+00 1.264166735103511963e+00 1.299999999999999886e-04 5.561915753004186946e+00 1.264165637795882535e+00 1.551830000000000043e+00 1.007057601705014172e+01 3.589952603881354509e+00 1.551830000000000043e+00 6.503747318873077887e+00 5.915687471651223106e+00 3.103540000000000187e+00 7.378753949045125715e+00 3.589951506573725304e+00 3.103540000000000187e+00 9.195558844580370206e+00 5.915679142402814783e+00 4.655249999999999666e+00 8.253737821009201170e+00 1.264166735103511963e+00 3.103540000000000187e+00 5.561915753004186946e+00 1.264165637795882535e+00 4.655240000000000045e+00 1.007057601705014172e+01 3.589952603881354509e+00 4.655249999999999666e+00 6.503747318873077887e+00 5.915687471651223106e+00 6.206949999999999967e+00 7.378753949045125715e+00 3.589951506573725304e+00 6.206949999999999967e+00 9.195558844580370206e+00 5.915679142402814783e+00 7.758659999999999890e+00 8.253737821009201170e+00 1.264166735103511963e+00 6.206949999999999967e+00 5.561915753004186946e+00 1.264165637795882535e+00 7.758650000000000269e+00 1.007057601705014172e+01 3.589952603881354509e+00 7.758659999999999890e+00 6.503747318873077887e+00 5.915687471651223106e+00 1.299999999999999886e-04 1.276239808505515505e+01 3.589953701188984603e+00 1.299999999999999886e-04 1.457921296501728214e+01 5.915680779147232116e+00 1.551840000000000108e+00 1.363739194144611133e+01 1.264168371847929295e+00 1.299999999999999886e-04 1.094556987344109800e+01 1.264167274540299424e+00 1.551830000000000043e+00 1.545422015306017016e+01 3.589954798496614252e+00 1.551830000000000043e+00 1.188739145488310811e+01 5.915689666266481517e+00 3.103540000000000187e+00 1.276239808505515505e+01 3.589953701188984603e+00 3.103540000000000187e+00 1.457921296501728214e+01 5.915680779147232116e+00 4.655249999999999666e+00 1.363739194144611133e+01 1.264168371847929295e+00 3.103540000000000187e+00 1.094556987344109800e+01 1.264167274540299424e+00 4.655240000000000045e+00 1.545422015306017016e+01 3.589954798496614252e+00 4.655249999999999666e+00 1.188739145488310811e+01 5.915689666266481517e+00 6.206949999999999967e+00 1.276239808505515505e+01 3.589953701188984603e+00 6.206949999999999967e+00 1.457921296501728214e+01 5.915680779147232116e+00 7.758659999999999890e+00 1.363739194144611133e+01 1.264168371847929295e+00 6.206949999999999967e+00 1.094556987344109800e+01 1.264167274540299424e+00 7.758650000000000269e+00 1.545422015306017016e+01 3.589954798496614252e+00 7.758659999999999890e+00 1.188739145488310811e+01 5.915689666266481517e+00 1.299999999999999886e-04 2.397844641427619550e+00 1.079802713621228349e+01 1.299999999999999886e-04 4.214659521389745755e+00 1.312375421417053012e+01 1.551840000000000108e+00 3.272828513391695449e+00 8.472242364742069043e+00 1.299999999999999886e-04 5.810164298135606087e-01 8.472240709563598315e+00 1.551830000000000043e+00 5.089666709432634661e+00 1.079802823351991137e+01 1.551830000000000043e+00 1.522838011255572388e+00 1.312376310128978041e+01 3.103540000000000187e+00 2.397844641427619550e+00 1.079802713621228349e+01 3.103540000000000187e+00 4.214659521389745755e+00 1.312375421417053012e+01 4.655249999999999666e+00 3.272828513391695449e+00 8.472242364742069043e+00 3.103540000000000187e+00 5.810164298135606087e-01 8.472240709563598315e+00 4.655240000000000045e+00 5.089666709432634661e+00 1.079802823351991137e+01 4.655249999999999666e+00 1.522838011255572388e+00 1.312376310128978041e+01 6.206949999999999967e+00 2.397844641427619550e+00 1.079802713621228349e+01 6.206949999999999967e+00 4.214659521389745755e+00 1.312375421417053012e+01 7.758659999999999890e+00 3.272828513391695449e+00 8.472242364742069043e+00 6.206949999999999967e+00 5.810164298135606087e-01 8.472240709563598315e+00 7.758650000000000269e+00 5.089666709432634661e+00 1.079802823351991137e+01 7.758659999999999890e+00 1.522838011255572388e+00 1.312376310128978041e+01 1.299999999999999886e-04 7.781498761864529712e+00 1.079802877295669994e+01 1.299999999999999886e-04 9.598303657399775091e+00 1.312375640878578942e+01 1.551840000000000108e+00 8.656482075957763200e+00 8.472234017059607325e+00 1.299999999999999886e-04 5.964660565823590055e+00 8.472242904178857614e+00 1.551830000000000043e+00 1.047332082986954482e+01 1.079802987026432959e+01 1.551830000000000043e+00 6.906491573821639918e+00 1.312375475360731691e+01 3.103540000000000187e+00 7.781498761864529712e+00 1.079802877295669994e+01 3.103540000000000187e+00 9.598303657399775091e+00 1.312375640878578942e+01 4.655249999999999666e+00 8.656482075957763200e+00 8.472234017059607325e+00 3.103540000000000187e+00 5.964660565823590055e+00 8.472242904178857614e+00 4.655240000000000045e+00 1.047332082986954482e+01 1.079802987026432959e+01 4.655249999999999666e+00 6.906491573821639918e+00 1.312375475360731691e+01 6.206949999999999967e+00 7.781498761864529712e+00 1.079802877295669994e+01 6.206949999999999967e+00 9.598303657399775091e+00 1.312375640878578942e+01 7.758659999999999890e+00 8.656482075957763200e+00 8.472234017059607325e+00 6.206949999999999967e+00 5.964660565823590055e+00 8.472242904178857614e+00 7.758650000000000269e+00 1.047332082986954482e+01 1.079802987026432959e+01 7.758659999999999890e+00 6.906491573821639918e+00 1.312375475360731691e+01 1.299999999999999886e-04 1.316514289787455816e+01 1.079803096757195924e+01 1.299999999999999886e-04 1.498195777783668525e+01 1.312375804553020764e+01 1.551840000000000108e+00 1.404013619639467336e+01 8.472235653804023769e+00 1.299999999999999886e-04 1.134831468626050111e+01 8.472244540923274059e+00 1.551830000000000043e+00 1.585696440800873219e+01 1.079802208045270895e+01 1.551830000000000043e+00 1.229013570983167014e+01 1.312375694822257621e+01 3.103540000000000187e+00 1.316514289787455816e+01 1.079803096757195924e+01 3.103540000000000187e+00 1.498195777783668525e+01 1.312375804553020764e+01 4.655249999999999666e+00 1.404013619639467336e+01 8.472235653804023769e+00 3.103540000000000187e+00 1.134831468626050111e+01 8.472244540923274059e+00 4.655240000000000045e+00 1.585696440800873219e+01 1.079802208045270895e+01 4.655249999999999666e+00 1.229013570983167014e+01 1.312375694822257621e+01 6.206949999999999967e+00 1.316514289787455816e+01 1.079803096757195924e+01 6.206949999999999967e+00 1.498195777783668525e+01 1.312375804553020764e+01 7.758659999999999890e+00 1.404013619639467336e+01 8.472235653804023769e+00 6.206949999999999967e+00 1.134831468626050111e+01 8.472244540923274059e+00 7.758650000000000269e+00 1.585696440800873219e+01 1.079802208045270895e+01 7.758659999999999890e+00 1.229013570983167014e+01 1.312375694822257621e+01 1.299999999999999886e-04 2.800589454247023546e+00 1.800610440259525902e+01 1.299999999999999886e-04 4.617404334209149752e+00 2.033183148055350387e+01 1.551840000000000108e+00 3.675572768340257479e+00 1.568030964669816463e+01 1.299999999999999886e-04 9.837612426329644943e-01 1.568031797594657206e+01 1.551830000000000043e+00 5.492410964381195804e+00 1.800609551547600518e+01 1.551830000000000043e+00 1.925582266204134196e+00 2.033183038324587599e+01 3.103540000000000187e+00 2.800589454247023546e+00 1.800610440259525902e+01 3.103540000000000187e+00 4.617404334209149752e+00 2.033183148055350387e+01 4.655249999999999666e+00 3.675572768340257479e+00 1.568030964669816463e+01 3.103540000000000187e+00 9.837612426329644943e-01 1.568031797594657206e+01 4.655240000000000045e+00 5.492410964381195804e+00 1.800609551547600518e+01 4.655249999999999666e+00 1.925582266204134196e+00 2.033183038324587599e+01 6.206949999999999967e+00 2.800589454247023546e+00 1.800610440259525902e+01 6.206949999999999967e+00 4.617404334209149752e+00 2.033183148055350387e+01 7.758659999999999890e+00 3.675572768340257479e+00 1.568030964669816463e+01 6.206949999999999967e+00 9.837612426329644943e-01 1.568031797594657206e+01 7.758650000000000269e+00 5.492410964381195804e+00 1.800609551547600518e+01 7.758659999999999890e+00 1.925582266204134196e+00 2.033183038324587599e+01 1.299999999999999886e-04 8.184243016813091742e+00 1.800609605491279197e+01 1.299999999999999886e-04 1.000104791234833712e+01 2.033182369074188500e+01 1.551840000000000108e+00 9.059226888777168085e+00 1.568031128344258285e+01 1.299999999999999886e-04 6.367404820772152085e+00 1.568031018613495142e+01 1.551830000000000043e+00 1.087606508481810685e+01 1.800609715222042695e+01 1.551830000000000043e+00 7.309236386641043914e+00 2.033183201999029421e+01 3.103540000000000187e+00 8.184243016813091742e+00 1.800609605491279197e+01 3.103540000000000187e+00 1.000104791234833712e+01 2.033182369074188500e+01 4.655249999999999666e+00 9.059226888777168085e+00 1.568031128344258285e+01 3.103540000000000187e+00 6.367404820772152085e+00 1.568031018613495142e+01 4.655240000000000045e+00 1.087606508481810685e+01 1.800609715222042695e+01 4.655249999999999666e+00 7.309236386641043914e+00 2.033183201999029421e+01 6.206949999999999967e+00 8.184243016813091742e+00 1.800609605491279197e+01 6.206949999999999967e+00 1.000104791234833712e+01 2.033182369074188500e+01 7.758659999999999890e+00 9.059226888777168085e+00 1.568031128344258285e+01 6.206949999999999967e+00 6.367404820772152085e+00 1.568031018613495142e+01 7.758650000000000269e+00 1.087606508481810685e+01 1.800609715222042695e+01 7.758659999999999890e+00 7.309236386641043914e+00 2.033183201999029421e+01 1.299999999999999886e-04 1.356788715282312019e+01 1.800609824952805482e+01 1.299999999999999886e-04 1.538470203278524728e+01 2.033182532748629967e+01 1.551840000000000108e+00 1.444288100921407647e+01 1.568031292018699929e+01 1.299999999999999886e-04 1.175105894120906314e+01 1.568031182287936964e+01 1.551830000000000043e+00 1.625970922082813530e+01 1.800609934683568270e+01 1.551830000000000043e+00 1.269288052265107325e+01 2.033183421460554996e+01 3.103540000000000187e+00 1.356788715282312019e+01 1.800609824952805482e+01 3.103540000000000187e+00 1.538470203278524728e+01 2.033182532748629967e+01 4.655249999999999666e+00 1.444288100921407647e+01 1.568031292018699929e+01 3.103540000000000187e+00 1.175105894120906314e+01 1.568031182287936964e+01 4.655240000000000045e+00 1.625970922082813530e+01 1.800609934683568270e+01 4.655249999999999666e+00 1.269288052265107325e+01 2.033183421460554996e+01 6.206949999999999967e+00 1.356788715282312019e+01 1.800609824952805482e+01 6.206949999999999967e+00 1.538470203278524728e+01 2.033182532748629967e+01 7.758659999999999890e+00 1.444288100921407647e+01 1.568031292018699929e+01 6.206949999999999967e+00 1.175105894120906314e+01 1.568031182287936964e+01 7.758650000000000269e+00 1.625970922082813530e+01 1.800609934683568270e+01 7.758659999999999890e+00 1.269288052265107325e+01 2.033183421460554996e+01