-2.824221387590000177e+03
-2.824185479430000214e+03
-2.824077732130000186e+03
-2.823898920999999973e+03
-2.823650270759999785e+03
