-1.879999999999999890e-04 4.337426278660370081e-03 -2.784308401953069882e-03 3.400000000000000244e-04 4.807955886893446745e-03 -3.379484752101517223e-03 1.240000000000000054e-04 -4.050614508604157178e-03 1.661559539314045849e-03 -2.449999999999999921e-04 -4.155822864756260511e-03 1.893790462741078108e-03 7.450000000000000025e-04 4.490346723961173223e-03 -3.166434477233210504e-03 -1.050000000000000044e-04 4.525087705382701588e-03 -2.939018417532341873e-03 3.609999999999999928e-04 -3.687345809033195330e-03 1.996815936586376471e-03 -1.230000000000000082e-04 -3.231047632102971873e-03 1.129008945527791618e-03 -5.710000000000000015e-04 4.295501674225299035e-03 -2.925188945474745811e-03 -8.200000000000000095e-05 4.524213627763179132e-03 -3.420719814653333524e-03 -4.060000000000000024e-04 -3.682844229695353237e-03 2.023606527909919614e-03 3.209999999999999963e-04 -4.105035299953305183e-03 1.996116526192114656e-03 1.890000000000000133e-04 3.463723151108770177e-03 -2.593269544893690975e-03 -7.470000000000000511e-04 3.797071457812240761e-03 -2.327452114280254350e-03 -6.499999999999999431e-05 -3.574508994388347384e-03 1.506757926488791781e-03 -5.500000000000000196e-05 -3.655600035725470494e-03 2.923488050053213438e-03 2.390000000000000089e-04 3.645363956319386083e-03 -2.317974034791475246e-03 3.999999999999999819e-06 3.919546647126335472e-03 -2.161025469771400177e-03 2.570000000000000127e-04 -4.181383217838014442e-03 2.278816005205907234e-03 -1.000000000000000082e-05 -4.110818521033583924e-03 2.125640865039825616e-03 -3.690000000000000246e-04 3.800550233956057414e-03 -2.551995869741280776e-03 7.290000000000000473e-04 4.015484358837424772e-03 -2.415774278348869000e-03 -2.489999999999999809e-04 -4.409468722549471364e-03 2.301575674371351445e-03 2.199999999999999943e-05 -3.550998151477341176e-03 2.877581124521861721e-03 -1.050000000000000044e-04 3.913821895618882496e-03 -3.070121849271493716e-03 -4.429999999999999802e-04 3.778818972862293957e-03 -3.209807964713146458e-03 1.620000000000000075e-04 -3.836850451296794796e-03 1.956092946253725536e-03 -1.769999999999999926e-04 -3.280248678091653939e-03 2.005118103723058966e-03 -9.799999999999999684e-05 4.059188185239084520e-03 -3.659148709305953470e-03 2.229999999999999994e-04 3.420287911816309243e-03 -3.298945376977804617e-03 -5.500000000000000196e-05 -3.460164227374719261e-03 2.621114365989456532e-03 -1.060000000000000016e-04 -3.702665819075514394e-03 1.615076107262393857e-03 3.589999999999999984e-04 4.079805045892839592e-03 -3.541115048612134778e-03 2.739999999999999923e-04 3.711657288195015746e-03 -2.995727820578635535e-03 -1.559999999999999972e-04 -3.448275853608921606e-03 2.851810414003297985e-03 3.660000000000000059e-04 -3.396451353467583312e-03 2.201907174139778028e-03 1.279999999999999942e-04 3.989793795909093999e-03 -2.266107999660497020e-03 1.930000000000000021e-04 4.367245085820653169e-03 -2.860089921728921607e-03 1.600000000000000131e-04 -3.906243619332698189e-03 2.130235382867955076e-03 -3.930000000000000117e-04 -4.169248796423859552e-03 2.585616845845146311e-03 4.910000000000000085e-04 3.868930707209377456e-03 -2.421607561685489452e-03 -1.359999999999999989e-04 4.298538537278960223e-03 -2.619882906453580625e-03 3.550000000000000096e-04 -3.265844160708280403e-03 2.298771828165559368e-03 1.250000000000000026e-04 -3.297436824857934504e-03 1.679570000348548468e-03 -6.290000000000000018e-04 3.903901903039947927e-03 -2.691979556282155916e-03 1.000000000000000048e-04 4.392198966998433519e-03 -3.058791466298069542e-03 -4.400000000000000157e-04 -3.547949958718150335e-03 2.519853981966390429e-03 2.180000000000000134e-04 -4.316662153626634607e-03 2.492695900315051311e-03 2.629999999999999959e-04 2.904588059802431718e-03 -2.759335645196709774e-03 -5.490000000000000088e-04 4.326004298440964263e-03 -2.594375418066996279e-03 1.160000000000000007e-04 -3.407238357593862441e-03 1.596566244958560598e-03 2.200000000000000078e-04 -3.603899900652616107e-03 2.755341994394900317e-03 1.640000000000000019e-04 3.293720408382243368e-03 -2.552722443080388242e-03 -2.079999999999999872e-04 4.473273193702588524e-03 -2.432338778727552962e-03 1.379999999999999933e-04 -4.359495064698253389e-03 2.461036119375651504e-03 -3.040000000000000167e-04 -4.136991190797404370e-03 1.979873957418671736e-03 -3.739999999999999835e-04 3.370018264010610914e-03 -2.818392609313845765e-03 7.529999999999999801e-04 4.470325005505862946e-03 -2.807758954246073260e-03 -3.220000000000000206e-04 -4.350949652352041098e-03 2.470574249581997117e-03 3.499999999999999693e-05 -3.576220979614973521e-03 2.928066854592243761e-03 1.499999999999999869e-04 4.712491754751147073e-03 -2.506800044160374576e-03 -1.820000000000000057e-04 3.709985256813288796e-03 -2.147313296710108826e-03 -2.269999999999999882e-04 -3.982478501854452325e-03 2.594210859253177296e-03 -4.169999999999999987e-04 -3.385039241759184130e-03 2.854286483825757385e-03 -1.090000000000000067e-04 4.850681607380203340e-03 -2.811984520551884161e-03 -1.540000000000000028e-04 3.251848788592560068e-03 -2.352074075391567994e-03 -6.999999999999999387e-05 -3.492736458633799966e-03 3.633508088683747549e-03 2.699999999999999899e-05 -3.726838561124057054e-03 2.526844541976962320e-03 1.330000000000000073e-04 4.919416780061266689e-03 -2.962052758485513287e-03 4.000000000000000192e-04 3.628808103157622061e-03 -2.399176890197465047e-03 2.590000000000000071e-04 -3.442280813897310044e-03 3.389313027484252422e-03 4.760000000000000234e-04 -3.138637057697083333e-03 2.693289702213743503e-03 6.700000000000000226e-05 4.256542552420792581e-03 -1.937477354559552674e-03 1.800000000000000113e-04 4.552399016142329169e-03 -2.701171634277678164e-03 1.320000000000000101e-04 -4.099146229532469113e-03 1.850561317252075655e-03 -2.849999999999999886e-04 -4.234749899365159061e-03 1.915226955174445956e-03 6.170000000000000354e-04 4.046806614832702993e-03 -2.124067377026040912e-03 4.800000000000000122e-05 4.462553546266490555e-03 -2.301537061770757113e-03 3.249999999999999851e-04 -3.527114333311101406e-03 2.104044077425989458e-03 -1.840000000000000001e-04 -3.293134153301153968e-03 1.254668262275527267e-03 -6.930000000000000396e-04 4.157778215142634605e-03 -2.199375437183321170e-03 -6.399999999999999710e-05 4.577956566785256094e-03 -2.745666708220017693e-03 -3.710000000000000190e-04 -3.616934101436618254e-03 2.235259203283790266e-03 4.139999999999999800e-04 -4.142233715519147777e-03 2.065299456741425971e-03 1.099999999999999971e-05 3.269420258925953039e-03 -2.216843740664766523e-03 -6.480000000000000300e-04 4.371529361599725723e-03 -2.120176653175742318e-03 1.050000000000000044e-04 -3.014911893119185705e-03 1.555615722705478354e-03 1.700000000000000122e-04 -3.558164600007262136e-03 3.018199907106081277e-03 2.480000000000000108e-04 3.582452078513717955e-03 -2.171235847427161088e-03 2.799999999999999958e-05 4.533239925650795268e-03 -1.896850225106234489e-03 2.889999999999999774e-04 -3.852064492048338368e-03 2.257410939350736577e-03 -1.469999999999999953e-04 -3.985655563215914285e-03 2.196769157514286662e-03 -1.979999999999999881e-04 3.636485282662403097e-03 -2.154223709130447320e-03 6.099999999999999737e-04 4.370113246377363078e-03 -2.037969630253871380e-03 -4.459999999999999989e-04 -4.005884716718988332e-03 2.426255064159006224e-03 -8.500000000000000611e-05 -3.549852324459136683e-03 3.166967867619130319e-03 1.920000000000000049e-04 4.249242971655249612e-03 -2.390776059742622146e-03 -7.399999999999999623e-05 3.498834665197358279e-03 -2.072417184259310076e-03 2.820000000000000241e-04 -4.062325412705864586e-03 1.989723910818815868e-03 -2.310000000000000042e-04 -3.419551469966194707e-03 1.949803257831937611e-03 -1.000000000000000082e-05 4.532033927964806107e-03 -2.725072746877757815e-03 -1.969999999999999909e-04 3.047627245075112783e-03 -2.117315558691211606e-03 -2.829999999999999942e-04 -3.620912038949329441e-03 2.809375198543585025e-03 -1.730000000000000038e-04 -4.031553961480564656e-03 1.769664560212010030e-03 -1.299999999999999920e-05 4.340611867288532953e-03 -2.709369413268326345e-03 3.269999999999999795e-04 3.484375821924291707e-03 -2.187790239394402092e-03 -5.599999999999999916e-05 -3.605916762951078859e-03 3.041900770680794081e-03 4.829999999999999767e-04 -3.575747639946620648e-03 2.147825368929273757e-03 5.000000000000000409e-06 -3.162861061504148338e-04 -3.368799475424569300e-04 -4.899999999999999842e-05 -4.048585815007385309e-04 -4.701462846659642571e-04 3.350000000000000113e-04 8.743455295675582129e-04 6.091714823637315711e-04 -1.299999999999999886e-04 2.706080537837997693e-04 2.542995895146984357e-04 -8.299999999999999815e-05 -1.372172316415905095e-04 -1.255405565569074611e-04 7.600000000000000418e-05 -1.381025048422129288e-03 3.810269846947645912e-05 7.119999999999999593e-04 3.490487179238556956e-04 9.868126729887793664e-05 1.310000000000000129e-04 -2.168252808670413471e-04 -8.512295798296300609e-04 1.110000000000000011e-04 9.092609383139123053e-04 3.378010450790578777e-04 -1.990000000000000124e-04 7.216767367927678358e-04 3.863414132242903496e-04 3.899999999999999929e-05 -3.855247038337237695e-04 3.240118867170146727e-04 -1.450000000000000009e-04 -1.322785033595996144e-03 -4.969796322732343520e-04 -6.920000000000000153e-04 3.637521476507571362e-04 1.108800030639509846e-04 -2.149999999999999947e-04 -7.255743849731207263e-05 -7.070533347058824978e-04 -5.209999999999999788e-04 8.350100303179004962e-04 5.863303243637485668e-04 2.759999999999999867e-04 6.313534237147880529e-04 3.292914428946116666e-04 8.500000000000000611e-05 -1.411594789427539679e-04 3.693239099503569002e-05 -2.000000000000000096e-04 -1.343391785838308908e-03 -5.914820151246324081e-05 4.600000000000000004e-05 6.023055273220792594e-04 -1.368139311520286442e-04 -1.600000000000000131e-04 -7.089902893145480674e-04 -7.866725936866449630e-04 9.500000000000000523e-05 1.318344966170243143e-03 4.892152391060405068e-04 -2.099999999999999884e-05 1.268295544312361472e-03 6.152035535311957447e-04 -6.260000000000000373e-04 2.670420639775699279e-04 7.282365934684959701e-04 -2.169999999999999891e-04 -9.995114097742731265e-04 -1.038857998829024283e-03 -2.290000000000000098e-04 1.628264256855993283e-05 9.423839743429702175e-05 1.599999999999999928e-05 -7.253629479843486929e-04 -2.909872741056812790e-04 -1.800000000000000046e-05 9.586323878945049882e-04 5.223341314519654730e-04 3.609999999999999928e-04 1.242401809969618902e-03 4.744288593500770924e-04 1.099999999999999971e-05 -4.067652108750757691e-04 3.382189575138494519e-04 1.740000000000000010e-04 -1.596394260221909020e-03 -1.468228308516949859e-03 3.240000000000000150e-04 -5.570061204640740319e-06 2.767417106584703834e-04 9.399999999999999448e-05 -7.984166254615094422e-04 -2.899101450219631281e-04 -1.459999999999999981e-04 1.353758195041186588e-03 3.880821425405038029e-04 -2.709999999999999735e-04 1.331792455905031654e-03 3.893094583932471433e-04 6.999999999999999929e-04 2.196632361396404080e-04 7.048432894542306856e-04 -7.700000000000000139e-05 -9.198290577366801746e-04 -7.778968469811733824e-04 9.399999999999999448e-05 -7.039292579898086093e-04 1.284702290257062451e-04 1.630000000000000047e-04 -2.378150404475183263e-03 -4.740681951940240997e-04 -3.930000000000000117e-04 1.085373097359309570e-03 4.962229736002342264e-04 -1.710000000000000094e-04 9.905467437489640266e-04 2.331032999515963511e-04 3.390000000000000001e-04 -2.279439651593503458e-04 -4.049142486347360429e-04 -6.000000000000000152e-05 -4.816956722931175269e-04 1.890183308786546468e-05 9.500000000000000523e-05 -4.986263217552922835e-04 -1.944859667245628062e-04 -1.800000000000000046e-05 -1.755426684379975035e-03 4.536365899778450526e-04 2.030000000000000012e-04 9.433053117800071618e-04 6.423761271775464384e-04 -5.010000000000000347e-04 8.819268481930066066e-04 7.269319324643465103e-04 -3.999999999999999819e-06 3.613688963683666711e-04 -7.563375706240623711e-04 -1.430000000000000064e-04 -7.773204604110908354e-04 4.640871705038717809e-04 -8.700000000000000051e-05 -4.854577674415814863e-04 -2.993839608773913425e-04 -2.169999999999999891e-04 -1.786404229408734314e-03 2.469674372432762219e-05 2.550000000000000183e-04 1.080300736329040242e-03 2.441133324645201191e-04 4.110000000000000155e-04 9.488997334906663266e-04 6.170245503878612429e-04 -2.469999999999999865e-04 -1.418719201375041785e-04 -4.598014335302768609e-04 1.479999999999999925e-04 -6.085665916044976503e-04 -1.903462728368602924e-04 -1.999999999999999909e-06 -7.610822752212168581e-04 -1.057060563264752975e-04 -1.610000000000000103e-04 -8.103506779000800835e-04 3.426045573077850053e-05 2.190000000000000106e-04 6.422633317150282890e-04 2.735960758752059943e-04 3.899999999999999929e-05 2.500270032918102889e-04 4.237115736263491212e-04 -1.489999999999999897e-04 -6.218825302484057641e-04 -3.748908088655156473e-04 0.000000000000000000e+00 -1.626025369356442910e-03 4.213674147454247640e-04 7.410000000000000137e-04 -9.615513522007709585e-05 2.687827932937833812e-04 3.240000000000000150e-04 -6.461955905549670318e-04 -2.543467293819942762e-04 2.380000000000000117e-04 7.198671895918501516e-04 1.030011133392799358e-04 -1.649999999999999991e-04 4.946654387759842229e-04 1.235965358760630472e-04 1.410000000000000120e-04 -8.904377916217579448e-04 7.078516265268337598e-05 1.069999999999999988e-04 -1.446285708592726657e-03 1.248785374691530384e-04 -6.390000000000000280e-04 -4.765484086996161340e-05 3.301727065365315877e-04 -1.459999999999999981e-04 -6.521289984042705819e-04 -7.373445219327760987e-05 -4.400000000000000157e-04 7.863280026703447232e-04 1.273313481294626804e-04 6.700000000000000226e-05 6.158761608312648744e-04 5.004213769611982844e-04 3.699999999999999811e-05 -6.622221970139442922e-04 -4.157039352496252633e-04 -2.139999999999999975e-04 -1.593215497765488372e-03 5.066698902440002188e-04 -4.899999999999999842e-05 6.410187214284453379e-04 -5.015416221792974366e-04 -1.689999999999999879e-04 -1.452742758267161222e-03 -2.954157719254684681e-04 7.399999999999999623e-05 1.070886971191178537e-03 -2.290984393944745076e-04 -2.069999999999999900e-04 4.959413556905463124e-04 -5.074614976353334657e-05 -7.069999999999999462e-04 6.051135172110040650e-04 1.464705816487662051e-04 -1.210000000000000002e-04 -1.511921165063734654e-03 7.946943206239128409e-05 -2.689999999999999791e-04 9.646841960839826506e-05 -1.556240470436943653e-04 -1.649999999999999991e-04 -1.591511919855345854e-03 1.069523677080172079e-04 1.779999999999999898e-04 6.224903433966856104e-04 -3.312427695480708672e-04 2.849999999999999886e-04 6.728731465155560285e-04 6.856915267272174167e-05 7.100000000000000462e-05 -1.731068425201513208e-04 -3.018128908325546310e-04 9.899999999999999404e-05 -2.207711353536156735e-03 -3.634041544445387609e-04 3.910000000000000172e-04 2.774749902191030168e-05 -3.100307666958701872e-04 1.800000000000000113e-04 -1.501890939560673703e-03 2.231336049669736582e-04 -3.099999999999999999e-04 8.446352542364409747e-04 -3.706970289885565283e-04 -1.920000000000000049e-04 6.281634515030558048e-04 -2.834848817763798573e-04 6.740000000000000114e-04 4.276138670826136359e-04 1.603944533911720821e-04 -1.399999999999999979e-05 -1.437973433044601422e-03 2.736464979822018093e-04 5.899999999999999754e-05 -4.912638878333552579e-04 -2.419706439030496566e-04 -1.849999999999999973e-04 -1.592766518603153493e-03 -5.249617292877548644e-04 -1.050000000000000044e-04 1.080539597955001421e-03 1.229112576261591646e-04 0.000000000000000000e+00 1.184288842700579377e-03 -5.118651551482303287e-04 3.159999999999999832e-04 -1.782063664952668141e-04 -4.647821973145643284e-04 -2.599999999999999772e-04 -3.954320254628241010e-04 -4.806885823881906273e-04 1.090000000000000067e-04 -2.282816100536899293e-04 -7.694631287536102737e-04 1.410000000000000120e-04 -8.941598129751048268e-04 -1.213063430341773105e-04 -1.019999999999999992e-04 1.026836852678259101e-03 2.731411319845613748e-04 -4.510000000000000120e-04 1.190486933876385442e-03 -3.830102613111066850e-04 3.699999999999999811e-05 4.194631080090433515e-04 -7.024946270395194961e-04 1.219999999999999974e-04 -4.955194195228398990e-04 -1.926564426011955552e-04 -8.200000000000000095e-05 -2.732157946473575652e-04 -6.057013534368343175e-04 -2.099999999999999884e-05 -9.384131029024375768e-04 9.049225547536770848e-05 3.069999999999999812e-04 1.215588319334580131e-03 4.068194168145503726e-04 2.700000000000000035e-04 1.083047094355657578e-03 -1.907170454043560532e-04 -2.809999999999999998e-04 -1.127711590496257053e-04 -3.512558407864615280e-04 1.330000000000000073e-04 -2.495578073065899826e-04 -3.436130102489236087e-04 -1.399999999999999979e-05 -1.721284967048117916e-04 -7.145101683126291485e-04 -1.010000000000000020e-04 -1.160127550307784531e-03 -4.359587905030229199e-04 2.799999999999999755e-04 1.069608371788006735e-03 9.848634072809332556e-04 -9.600000000000000243e-05 7.430716942364960775e-04 1.597950475593760717e-04 -1.599999999999999928e-05 -2.596352926271650974e-04 -8.107783388956602954e-04 4.300000000000000165e-05 -1.541212186715755408e-03 -1.041825106188143748e-04 7.389999999999999651e-04 5.579706286099896627e-04 -3.566830211946918350e-04 1.930000000000000021e-04 -9.175203491668678475e-04 -8.441287868949316807e-04 1.039999999999999936e-04 9.492001070287168140e-04 5.148486737058496129e-04 -7.299999999999999903e-05 1.153699124772719501e-03 1.058032584501128768e-04 -3.000000000000000076e-06 -5.162979166013684619e-04 -2.956576758906935163e-04 -7.999999999999999638e-06 -1.432094471035208309e-03 -4.277738024124275173e-04 -7.140000000000000079e-04 4.380015944522458742e-04 -3.169283882161557406e-04 -2.469999999999999865e-04 -8.733428232462002016e-04 -7.704786259750208465e-04 -5.130000000000000011e-04 9.885928545571129496e-04 7.179673863892556797e-04 1.100000000000000039e-04 1.079712780152991937e-03 -3.528898375267780079e-05 1.589999999999999888e-04 -2.516420262952349246e-04 -7.931968801010428520e-04 -9.100000000000000287e-05 -1.640168125802360507e-03 7.862263733793246412e-05 5.899999999999999754e-05 3.511169837229660457e-04 -7.247164022852568962e-04 -1.100000000000000039e-04 -1.123781654294274271e-03 -3.949225157820508291e-04 3.999999999999999819e-06 8.760335141388200797e-04 1.033738497931459277e-03 -1.010000000000000020e-04 1.041627616017791079e-03 7.350353117701848493e-04 -6.970000000000000284e-04 3.754909126067130012e-06 1.209789265014985069e-04 -4.699999999999999724e-05 -1.235774596603709391e-03 -3.916696904139241450e-04 -2.730000000000000222e-04 -2.761982118611079899e-04 -3.901993692520868968e-04 -9.500000000000000523e-05 -1.263795306218823801e-03 -6.860338168974685973e-05 1.299999999999999886e-04 5.122699168323151296e-04 8.868029839308237640e-04 2.629999999999999959e-04 1.148322246521266739e-03 8.162095430368055500e-04 5.300000000000000078e-05 -6.344760392363390329e-04 -2.059251214275898030e-04 7.200000000000000182e-05 -1.858913066844227868e-03 -8.786650157573062036e-04 2.829999999999999942e-04 -2.030887472997317574e-04 -3.902780556477979264e-04 6.200000000000000270e-05 -1.226445242689432622e-03 -9.595138584648082731e-06 -2.400000000000000061e-04 8.172454969815377097e-04 7.165241082220467341e-04 -2.410000000000000033e-04 1.116303382570555010e-03 6.016616641115972832e-04 7.110000000000000434e-04 5.511033323240323864e-05 9.006581577387432727e-05 -2.599999999999999840e-05 -1.100386889085486078e-03 -2.630222316245643807e-04 1.200000000000000030e-05 -6.593412455571822555e-04 -7.733771335579653382e-05 -1.039999999999999936e-04 -1.877900532449764889e-03 -2.325996350489149031e-04 -2.750000000000000166e-04 1.527296962190269336e-03 3.032688399495981940e-04 -7.799999999999999859e-05 7.473258846816757542e-04 6.302904267754276448e-04 3.390000000000000001e-04 -1.040369473337940566e-04 -4.458904726381416792e-04 -2.790000000000000054e-04 -4.301486463783342549e-04 -4.567145082202740160e-04 1.359999999999999989e-04 -4.134211683305723793e-04 -5.337676812773366154e-04 1.800000000000000046e-05 -1.125473782548668976e-03 4.085051769061676455e-05 1.479999999999999925e-04 1.451754304040379006e-03 1.522479579509527147e-04 -4.189999999999999931e-04 7.579941286171269386e-04 1.036327603116872715e-03 7.100000000000000462e-05 5.298439497040997610e-04 -7.166745348915079744e-04 5.800000000000000034e-05 -5.625495530992381463e-04 -2.630266152081332689e-04 -7.700000000000000139e-05 -3.334456287773258096e-04 -5.722892735752556793e-04 1.079999999999999960e-04 -1.138808236920503666e-03 3.220322957748401492e-04 1.669999999999999935e-04 1.575348037477613964e-03 -1.887012302541867987e-06 4.420000000000000101e-04 8.240744205673369762e-04 9.104451380322746987e-04 -3.379999999999999758e-04 -7.651539908757411289e-05 -4.193845415635502659e-04 1.759999999999999954e-04 -2.365322537395076407e-04 -2.001161985969880500e-04