-3.285473462167212144e+00 -4.119445303307128553e-04 2.669366723402116694e-04 -4.119445303307128553e-04 -5.647835578525984346e+01 -4.712118205489169753e+01 2.669366723402116694e-04 -4.712118205489170464e+01 5.767902721759662654e+01
-2.844280847648025468e+00 6.186633268512807537e-02 4.969743012111217662e-02 6.186633268512807537e-02 -5.615475338133672523e+01 -4.731915648107766259e+01 4.969743012111217662e-02 -4.731915648107765549e+01 5.791367888458659507e+01
-2.767342570742821639e+00 1.302452235505616174e-01 1.100886674332991894e-01 1.302452235505616174e-01 -5.621321693499708516e+01 -4.749932939636219942e+01 1.100886674332991894e-01 -4.749932939636219942e+01 5.774246412652544791e+01
-1.826020713866750356e+00 2.123226809260867487e-01 1.784549635929855993e-01 2.123226809260867487e-01 -5.540586816234262102e+01 -4.768217054561014123e+01 1.784549635929855993e-01 -4.768217054561014123e+01 5.855414754593446958e+01
-8.121848861697098521e-01 3.060042894572971850e-01 2.496893964711433545e-01 3.060042894572971850e-01 -5.450774901220754742e+01 -4.785534575207840646e+01 2.496893964711433545e-01 -4.785534575207839936e+01 5.925121398396850481e+01
