2.026159999999999961e+00 3.090370000000000061e+00 5.080910000000000259e+00 4.829600000000000004e-01 3.622869999999999813e+00 2.412859999999999783e+00 1.672479999999999967e+00 1.113629999999999898e+00 2.412900000000000045e+00 3.307729999999999837e+00 3.622860000000000191e+00 2.412850000000000161e+00 8.366500000000000048e-01 5.599639999999999951e+00 5.080910000000000259e+00 2.471909999999999830e+00 8.108890000000000597e+00 5.080899999999999750e+00 2.118219999999999992e+00 6.132139999999999702e+00 2.412879999999999914e+00 3.661410000000000053e+00 5.599639999999999951e+00 5.080910000000000259e+00 1.061679999999999957e+00 4.484659999999999869e+00 9.936149999999999594e+00 2.251199999999999868e+00 1.975419999999999954e+00 9.936189999999999856e+00 3.886439999999999895e+00 4.484659999999999869e+00 9.936149999999999594e+00 2.696940000000000115e+00 6.993929999999999758e+00 9.936189999999999856e+00 2.604859999999999953e+00 3.952160000000000117e+00 1.260420000000000051e+01 1.415359999999999951e+00 6.461430000000000007e+00 1.260421000000000014e+01 3.050629999999999953e+00 8.970670000000000144e+00 1.260420000000000051e+01 4.240129999999999733e+00 6.461430000000000007e+00 1.260421000000000014e+01 3.183580000000000076e+00 4.813939999999999664e+00 2.012750000000000128e+01 1.640379999999999949e+00 5.346449999999999925e+00 1.745944000000000074e+01 2.829899999999999860e+00 2.837209999999999788e+00 1.745949999999999847e+01 4.465160000000000018e+00 5.346440000000000303e+00 1.745944000000000074e+01 1.994070000000000009e+00 7.323210000000000441e+00 2.012751000000000090e+01 3.629340000000000011e+00 9.832440000000000069e+00 2.012750000000000128e+01 3.275669999999999860e+00 7.855710000000000193e+00 1.745949999999999847e+01 4.818859999999999921e+00 7.323210000000000441e+00 2.012751000000000090e+01 1.728180000000000049e+00 1.563665999999999912e+01 5.080910000000000259e+00 4.552940000000000431e+00 1.563664999999999949e+01 5.080910000000000259e+00 9.287100000000000355e-01 8.641389999999999461e+00 2.412850000000000161e+00 3.753480000000000150e+00 8.641379999999999839e+00 2.412840000000000096e+00 1.282399999999999984e+00 1.061813000000000073e+01 5.080899999999999750e+00 2.917670000000000208e+00 1.312739999999999974e+01 5.080910000000000259e+00 1.374479999999999924e+00 1.365989000000000075e+01 2.412850000000000161e+00 2.564000000000000057e+00 1.115066000000000024e+01 2.412900000000000045e+00 4.107169999999999987e+00 1.061813000000000073e+01 5.080899999999999750e+00 4.199239999999999640e+00 1.365989000000000075e+01 2.412850000000000161e+00 1.507439999999999891e+00 9.503159999999999386e+00 9.936149999999999594e+00 4.332189999999999763e+00 9.503170000000000783e+00 9.936159999999999215e+00 1.953200000000000047e+00 1.452167999999999992e+01 9.936149999999999594e+00 3.142720000000000180e+00 1.201244999999999941e+01 9.936180000000000234e+00 4.777960000000000207e+00 1.452167999999999992e+01 9.936139999999999972e+00 2.306869999999999976e+00 1.649843999999999866e+01 1.260420000000000051e+01 5.131649999999999601e+00 1.649842999999999904e+01 1.260420000000000051e+01 1.861129999999999951e+00 1.147992999999999952e+01 1.260421000000000014e+01 3.496399999999999952e+00 1.398916999999999966e+01 1.260420000000000051e+01 4.685880000000000045e+00 1.147993999999999915e+01 1.260421000000000014e+01 2.885590000000000099e+00 1.736023000000000138e+01 2.012751000000000090e+01 5.710359999999999658e+00 1.736022000000000176e+01 2.012750000000000128e+01 2.086149999999999949e+00 1.036495000000000033e+01 1.745944000000000074e+01 4.910919999999999952e+00 1.036495000000000033e+01 1.745945000000000036e+01 2.439839999999999787e+00 1.234171000000000085e+01 2.012750000000000128e+01 4.075109999999999566e+00 1.485096000000000060e+01 2.012751000000000090e+01 2.531909999999999883e+00 1.538345999999999947e+01 1.745944000000000074e+01 3.721429999999999794e+00 1.287421999999999933e+01 1.745948999999999884e+01 5.264610000000000234e+00 1.234172000000000047e+01 2.012751000000000090e+01 5.356679999999999886e+00 1.538345999999999947e+01 1.745945000000000036e+01 4.850920000000000343e+00 3.090380000000000127e+00 5.080910000000000259e+00 4.497250000000000192e+00 1.113639999999999963e+00 2.412900000000000045e+00 7.675699999999999967e+00 3.090380000000000127e+00 5.080899999999999750e+00 6.132489999999999775e+00 3.622869999999999813e+00 2.412850000000000161e+00 7.322009999999999685e+00 1.113629999999999898e+00 2.412900000000000045e+00 5.296680000000000277e+00 8.108879999999999200e+00 5.080910000000000259e+00 4.942999999999999616e+00 6.132139999999999702e+00 2.412900000000000045e+00 6.486180000000000057e+00 5.599639999999999951e+00 5.080910000000000259e+00 8.121449999999999392e+00 8.108869999999999578e+00 5.080910000000000259e+00 7.767769999999999619e+00 6.132139999999999702e+00 2.412889999999999979e+00 5.075960000000000250e+00 1.975430000000000019e+00 9.936199999999999477e+00 6.711210000000000342e+00 4.484659999999999869e+00 9.936139999999999972e+00 7.900719999999999743e+00 1.975430000000000019e+00 9.936189999999999856e+00 5.521720000000000184e+00 6.993920000000000137e+00 9.936199999999999477e+00 8.346500000000000696e+00 6.993940000000000268e+00 9.936199999999999477e+00 5.429640000000000022e+00 3.952150000000000052e+00 1.260421000000000014e+01 8.254410000000000025e+00 3.952160000000000117e+00 1.260420000000000051e+01 5.875399999999999956e+00 8.970660000000000522e+00 1.260420000000000051e+01 7.064899999999999736e+00 6.461409999999999876e+00 1.260421000000000014e+01 8.700169999999999959e+00 8.970670000000000144e+00 1.260418999999999912e+01 6.008339999999999570e+00 4.813930000000000042e+00 2.012749000000000166e+01 5.654670000000000307e+00 2.837200000000000166e+00 1.745949999999999847e+01 8.833130000000000592e+00 4.813939999999999664e+00 2.012750000000000128e+01 7.289920000000000400e+00 5.346440000000000303e+00 1.745944000000000074e+01 8.479440000000000310e+00 2.837209999999999788e+00 1.745948999999999884e+01 6.454119999999999635e+00 9.832449999999999690e+00 2.012749000000000166e+01 6.100430000000000241e+00 7.855710000000000193e+00 1.745948999999999884e+01 7.643609999999999793e+00 7.323199999999999932e+00 2.012750000000000128e+01 9.278890000000000526e+00 9.832449999999999690e+00 2.012749000000000166e+01 8.925190000000000623e+00 7.855719999999999814e+00 1.745948999999999884e+01 7.377699999999999925e+00 1.563664999999999949e+01 5.080899999999999750e+00 6.578249999999999709e+00 8.641379999999999839e+00 2.412850000000000161e+00 5.742440000000000211e+00 1.312739999999999974e+01 5.080899999999999750e+00 5.388770000000000060e+00 1.115066000000000024e+01 2.412900000000000045e+00 6.931939999999999991e+00 1.061814000000000036e+01 5.080910000000000259e+00 8.567199999999999704e+00 1.312738000000000049e+01 5.080910000000000259e+00 7.024020000000000152e+00 1.365989000000000075e+01 2.412850000000000161e+00 8.213520000000000820e+00 1.115065000000000062e+01 2.412900000000000045e+00 7.156959999999999766e+00 9.503180000000000405e+00 9.936139999999999972e+00 5.967469999999999608e+00 1.201243000000000016e+01 9.936189999999999856e+00 7.602719999999999700e+00 1.452167999999999992e+01 9.936149999999999594e+00 8.792239999999999611e+00 1.201243999999999978e+01 9.936189999999999856e+00 7.956419999999999604e+00 1.649843999999999866e+01 1.260420000000000051e+01 6.321150000000000269e+00 1.398916999999999966e+01 1.260418999999999912e+01 7.510670000000000179e+00 1.147991999999999990e+01 1.260421999999999976e+01 9.145920000000000272e+00 1.398916000000000004e+01 1.260421000000000014e+01 8.535130000000000550e+00 1.736022000000000176e+01 2.012750000000000128e+01 7.735680000000000334e+00 1.036495000000000033e+01 1.745945999999999998e+01 6.899869999999999948e+00 1.485096000000000060e+01 2.012751000000000090e+01 6.546190000000000175e+00 1.287420999999999971e+01 1.745948999999999884e+01 8.089380000000000237e+00 1.234171000000000085e+01 2.012750000000000128e+01 9.724640000000000839e+00 1.485094999999999921e+01 2.012750000000000128e+01 8.181449999999999889e+00 1.538347000000000087e+01 1.745945000000000036e+01 9.370969999999999800e+00 1.287423000000000073e+01 1.745948999999999884e+01 4.368799999999999906e-01 2.101999999999999869e+00 3.746869999999999923e+00 1.735810000000000075e+00 2.659580000000000055e+00 1.316529999999999978e+00 3.371090000000000142e+00 5.168809999999999683e+00 1.316519999999999913e+00 2.072169999999999845e+00 4.611279999999999824e+00 3.746960000000000068e+00 3.261649999999999938e+00 2.101999999999999869e+00 3.746869999999999923e+00 4.560579999999999856e+00 2.659590000000000121e+00 1.316519999999999913e+00 8.826399999999999801e-01 7.120510000000000339e+00 3.746869999999999923e+00 3.707419999999999938e+00 7.120510000000000339e+00 3.746859999999999857e+00 2.181569999999999787e+00 7.678099999999999703e+00 1.316529999999999978e+00 5.006339999999999790e+00 7.678079999999999572e+00 1.316519999999999913e+00 7.733200000000000074e-01 4.053679999999999950e+00 6.177430000000000199e+00 1.962830000000000075e+00 1.544450000000000101e+00 6.177480000000000082e+00 3.598079999999999945e+00 4.053670000000000329e+00 6.177419999999999689e+00 2.408580000000000165e+00 6.562949999999999839e+00 6.177480000000000082e+00 1.015589999999999993e+00 2.963799999999999990e+00 1.127016000000000062e+01 2.314529999999999976e+00 3.521360000000000046e+00 8.839829999999999188e+00 3.949800000000000200e+00 6.030590000000000117e+00 8.839819999999999567e+00 2.650889999999999969e+00 5.473049999999999748e+00 1.127025000000000077e+01 3.840370000000000061e+00 2.963789999999999925e+00 1.127016000000000062e+01 5.139310000000000045e+00 3.521360000000000046e+00 8.839819999999999567e+00 1.461359999999999992e+00 7.982300000000000395e+00 1.127017000000000024e+01 4.286129999999999995e+00 7.982300000000000395e+00 1.127016000000000062e+01 2.760289999999999910e+00 8.539870000000000516e+00 8.839829999999999188e+00 5.585060000000000358e+00 8.539870000000000516e+00 8.839829999999999188e+00 1.352049999999999974e+00 4.915460000000000385e+00 1.370071000000000083e+01 2.541539999999999910e+00 2.406239999999999934e+00 1.370077999999999996e+01 4.176809999999999690e+00 4.915460000000000385e+00 1.370072000000000045e+01 2.987309999999999910e+00 7.424730000000000274e+00 1.370078999999999958e+01 2.893250000000000099e+00 4.383149999999999658e+00 1.636311999999999856e+01 4.528529999999999944e+00 6.892369999999999663e+00 1.636310999999999893e+01 5.718020000000000103e+00 4.383149999999999658e+00 1.636311999999999856e+01 3.338999999999999968e+00 9.401659999999999684e+00 1.636313000000000173e+01 6.163770000000000415e+00 9.401669999999999305e+00 1.636313000000000173e+01 1.594309999999999894e+00 3.825569999999999915e+00 1.879346999999999923e+01 1.930749999999999966e+00 5.777250000000000441e+00 2.122400999999999982e+01 3.229600000000000026e+00 6.334830000000000183e+00 1.879354999999999976e+01 3.120249999999999968e+00 3.268009999999999859e+00 2.122409000000000034e+01 4.419080000000000119e+00 3.825569999999999915e+00 1.879344999999999999e+01 4.755519999999999747e+00 5.777250000000000441e+00 2.122401999999999944e+01 2.040070000000000050e+00 8.844079999999999941e+00 1.879345999999999961e+01 3.566030000000000033e+00 8.286519999999999442e+00 2.122409000000000034e+01 4.864840000000000053e+00 8.844079999999999941e+00 1.879345999999999961e+01 5.452099999999999724e+00 1.269660000000000011e+01 1.316519999999999913e+00 2.517929999999999779e+00 9.629789999999999850e+00 3.746960000000000068e+00 1.328400000000000025e+00 1.213902000000000037e+01 3.746859999999999857e+00 2.627330000000000165e+00 1.269660999999999973e+01 1.316529999999999978e+00 3.816850000000000076e+00 1.018731000000000009e+01 1.316519999999999913e+00 2.963699999999999779e+00 1.464828999999999937e+01 3.746960000000000068e+00 4.153170000000000250e+00 1.213902000000000037e+01 3.746859999999999857e+00 4.262599999999999945e+00 1.520581999999999923e+01 1.316519999999999913e+00 1.219079999999999941e+00 9.072179999999999467e+00 6.177419999999999689e+00 4.043859999999999566e+00 9.072190000000000865e+00 6.177410000000000068e+00 1.664849999999999941e+00 1.409069000000000038e+01 6.177419999999999689e+00 2.854359999999999786e+00 1.158146999999999949e+01 6.177480000000000082e+00 4.489620000000000388e+00 1.409069000000000038e+01 6.177430000000000199e+00 6.030820000000000292e+00 1.355837999999999965e+01 8.839819999999999567e+00 3.096649999999999903e+00 1.049156999999999940e+01 1.127026000000000039e+01 1.907119999999999926e+00 1.300081999999999915e+01 1.127016000000000062e+01 3.206039999999999779e+00 1.355838999999999928e+01 8.839829999999999188e+00 4.395570000000000199e+00 1.104908999999999963e+01 8.839809999999999945e+00 3.542409999999999837e+00 1.551007000000000069e+01 1.127025000000000077e+01 4.731889999999999930e+00 1.300080999999999953e+01 1.127017000000000024e+01 4.841319999999999624e+00 1.606760999999999839e+01 8.839809999999999945e+00 1.797800000000000065e+00 9.933970000000000411e+00 1.370072000000000045e+01 4.622560000000000002e+00 9.933980000000000032e+00 1.370072000000000045e+01 2.243559999999999999e+00 1.495247999999999955e+01 1.370072000000000045e+01 3.433069999999999844e+00 1.244325000000000081e+01 1.370077999999999996e+01 5.068329999999999558e+00 1.495247999999999955e+01 1.370072000000000045e+01 6.609539999999999971e+00 1.442018000000000022e+01 1.636313000000000173e+01 3.784759999999999902e+00 1.442015999999999920e+01 1.636313000000000173e+01 4.974280000000000257e+00 1.191086999999999918e+01 1.636310999999999893e+01 5.420029999999999681e+00 1.692939000000000149e+01 1.636309999999999931e+01 2.376510000000000122e+00 1.079574999999999996e+01 2.122401999999999944e+01 3.675349999999999895e+00 1.135335000000000072e+01 1.879354999999999976e+01 5.201279999999999681e+00 1.079575999999999958e+01 2.122400999999999982e+01 2.485840000000000050e+00 1.386259000000000086e+01 1.879344999999999999e+01 2.822270000000000056e+00 1.581424999999999947e+01 2.122400999999999982e+01 4.121109999999999829e+00 1.637184999999999846e+01 1.879354000000000013e+01 4.011779999999999902e+00 1.330503999999999998e+01 2.122408000000000072e+01 5.310599999999999987e+00 1.386259000000000086e+01 1.879346999999999923e+01 5.647039999999999615e+00 1.581426000000000087e+01 2.122400999999999982e+01 6.195859999999999701e+00 5.168790000000000440e+00 1.316510000000000069e+00 4.896950000000000358e+00 4.611259999999999692e+00 3.746970000000000134e+00 6.086430000000000007e+00 2.101999999999999869e+00 3.746859999999999857e+00 7.385349999999999859e+00 2.659580000000000055e+00 1.316529999999999978e+00 9.020640000000000214e+00 5.168790000000000440e+00 1.316510000000000069e+00 7.721720000000000361e+00 4.611279999999999824e+00 3.746960000000000068e+00 6.532189999999999941e+00 7.120519999999999960e+00 3.746869999999999923e+00 7.831100000000000172e+00 7.678090000000000082e+00 1.316540000000000044e+00 4.787600000000000300e+00 1.544450000000000101e+00 6.177489999999999704e+00 6.422860000000000014e+00 4.053670000000000329e+00 6.177419999999999689e+00 7.612370000000000303e+00 1.544450000000000101e+00 6.177489999999999704e+00 5.233360000000000234e+00 6.562960000000000349e+00 6.177489999999999704e+00 8.058130000000000237e+00 6.562960000000000349e+00 6.177480000000000082e+00 6.774580000000000268e+00 6.030590000000000117e+00 8.839819999999999567e+00 5.475649999999999906e+00 5.473060000000000258e+00 1.127025000000000077e+01 6.665140000000000065e+00 2.963779999999999859e+00 1.127016000000000062e+01 7.964059999999999917e+00 3.521360000000000046e+00 8.839829999999999188e+00 9.599339999999999762e+00 6.030590000000000117e+00 8.839809999999999945e+00 8.300430000000000419e+00 5.473049999999999748e+00 1.127026000000000039e+01 7.110890000000000377e+00 7.982300000000000395e+00 1.127017000000000024e+01 8.409829999999999472e+00 8.539870000000000516e+00 8.839829999999999188e+00 5.366319999999999979e+00 2.406239999999999934e+00 1.370077000000000034e+01 7.001579999999999693e+00 4.915470000000000006e+00 1.370071000000000083e+01 8.191090000000000870e+00 2.406229999999999869e+00 1.370077999999999996e+01 5.812070000000000292e+00 7.424739999999999895e+00 1.370078999999999958e+01 8.636839999999999407e+00 7.424730000000000274e+00 1.370077000000000034e+01 7.353299999999999947e+00 6.892380000000000173e+00 1.636311999999999856e+01 8.542790000000000106e+00 4.383140000000000036e+00 1.636313000000000173e+01 1.017805000000000071e+01 6.892380000000000173e+00 1.636311999999999856e+01 8.988550000000000040e+00 9.401669999999999305e+00 1.636311999999999856e+01 6.054369999999999585e+00 6.334839999999999804e+00 1.879354999999999976e+01 5.945020000000000415e+00 3.268019999999999925e+00 2.122409000000000034e+01 7.243859999999999744e+00 3.825579999999999981e+00 1.879346999999999923e+01 7.580280000000000129e+00 5.777239999999999931e+00 2.122400000000000020e+01 8.879139999999999588e+00 6.334850000000000314e+00 1.879354999999999976e+01 8.769800000000000040e+00 3.268009999999999859e+00 2.122407000000000110e+01 6.390799999999999592e+00 8.286509999999999820e+00 2.122408000000000072e+01 7.689619999999999678e+00 8.844089999999999563e+00 1.879346999999999923e+01 9.215559999999999974e+00 8.286530000000000840e+00 2.122409000000000034e+01 8.613220000000000098e+00 1.464827999999999975e+01 3.746960000000000068e+00 5.342690000000000161e+00 9.629789999999999850e+00 3.746960000000000068e+00 9.466390000000000526e+00 1.018730000000000047e+01 1.316500000000000004e+00 8.167469999999999786e+00 9.629780000000000229e+00 3.746960000000000068e+00 6.641619999999999635e+00 1.018731000000000009e+01 1.316510000000000069e+00 5.788450000000000095e+00 1.464827999999999975e+01 3.746960000000000068e+00 6.977940000000000254e+00 1.213902000000000037e+01 3.746859999999999857e+00 8.276870000000000616e+00 1.269660999999999973e+01 1.316540000000000044e+00 7.087369999999999948e+00 1.520581999999999923e+01 1.316510000000000069e+00 9.912150000000000460e+00 1.520580999999999960e+01 1.316510000000000069e+00 6.868610000000000326e+00 9.072190000000000865e+00 6.177419999999999689e+00 5.679120000000000168e+00 1.158145999999999987e+01 6.177500000000000213e+00 7.314370000000000260e+00 1.409070000000000000e+01 6.177410000000000068e+00 8.503899999999999793e+00 1.158145999999999987e+01 6.177489999999999704e+00 9.191929999999999268e+00 1.551007000000000069e+01 1.127023999999999937e+01 5.921420000000000350e+00 1.049155999999999977e+01 1.127026000000000039e+01 1.004510999999999932e+01 1.104908000000000001e+01 8.839809999999999945e+00 8.746180000000000732e+00 1.049155999999999977e+01 1.127026000000000039e+01 7.220340000000000202e+00 1.104909999999999926e+01 8.839819999999999567e+00 6.367169999999999774e+00 1.551007000000000069e+01 1.127025000000000077e+01 7.556670000000000442e+00 1.300080999999999953e+01 1.127017000000000024e+01 8.855589999999999407e+00 1.355838999999999928e+01 8.839819999999999567e+00 7.666089999999999627e+00 1.606758999999999915e+01 8.839809999999999945e+00 1.049086999999999925e+01 1.606759999999999877e+01 8.839800000000000324e+00 7.447339999999999627e+00 9.933970000000000411e+00 1.370071000000000083e+01 6.257830000000000226e+00 1.244326000000000043e+01 1.370078999999999958e+01 7.893089999999999939e+00 1.495247999999999955e+01 1.370072000000000045e+01 9.082599999999999341e+00 1.244325000000000081e+01 1.370078999999999958e+01 7.799039999999999750e+00 1.191088000000000058e+01 1.636310999999999893e+01 1.062382999999999988e+01 1.191086999999999918e+01 1.636309999999999931e+01 9.434309999999999974e+00 1.442018000000000022e+01 1.636310999999999893e+01 8.244809999999999306e+00 1.692937999999999832e+01 1.636310999999999893e+01 1.106958000000000020e+01 1.692937999999999832e+01 1.636311999999999856e+01 6.500130000000000408e+00 1.135335000000000072e+01 1.879354999999999976e+01 8.026049999999999685e+00 1.079574999999999996e+01 2.122401999999999944e+01 9.324889999999999901e+00 1.135335000000000072e+01 1.879355999999999938e+01 6.945890000000000342e+00 1.637186000000000163e+01 1.879354999999999976e+01 6.836540000000000283e+00 1.330503999999999998e+01 2.122408000000000072e+01 8.135369999999999990e+00 1.386257999999999946e+01 1.879345999999999961e+01 8.471809999999999619e+00 1.581426000000000087e+01 2.122400000000000020e+01 9.770659999999999457e+00 1.637186000000000163e+01 1.879354000000000013e+01 9.661319999999999908e+00 1.330502000000000073e+01 2.122409000000000034e+01