-2.718814754500000163e+03
-2.718775805570000102e+03
-2.718672101329999805e+03
-2.718504406200000176e+03
-2.718274147890000222e+03
-2.717983832509999957e+03
-2.717636566919999950e+03
-2.717236289060000217e+03
-2.716787458409999999e+03
-2.716295156719999795e+03
