4.346740000000000048e-01 1.376000000000000001e-01 -8.854119999999999768e-01 -4.355749999999999900e-01 -1.376650000000000096e-01 8.873969999999999914e-01 -4.358759999999999857e-01 -1.376179999999999903e-01 8.858690000000000175e-01 -4.368139999999999801e-01 -1.375180000000000013e-01 8.876910000000000078e-01 4.343529999999999891e-01 1.382960000000000023e-01 -8.845800000000000329e-01 4.349180000000000268e-01 1.369160000000000099e-01 -8.850029999999999841e-01 -4.357869999999999799e-01 -1.378759999999999986e-01 8.864360000000000017e-01 4.352800000000000002e-01 1.371549999999999991e-01 -8.845539999999999514e-01 -4.358319999999999972e-01 -1.369910000000000017e-01 8.869519999999999627e-01 -4.360430000000000139e-01 -1.377110000000000001e-01 8.863950000000000440e-01 -4.365379999999999816e-01 -1.374219999999999886e-01 8.875170000000000003e-01 -4.357570000000000054e-01 -1.384479999999999877e-01 8.861120000000000108e-01 4.352559999999999762e-01 1.370109999999999939e-01 -8.854319999999999968e-01 4.347940000000000138e-01 1.382249999999999868e-01 -8.846399999999999819e-01 4.347809999999999730e-01 1.368520000000000014e-01 -8.849660000000000304e-01 4.350840000000000263e-01 1.370699999999999974e-01 -8.845929999999999627e-01 4.349199999999999733e-01 1.369249999999999912e-01 -8.852039999999999909e-01 -4.357400000000000162e-01 -1.378050000000000108e-01 8.876610000000000333e-01 -4.357550000000000034e-01 -1.379670000000000063e-01 8.858629999999999560e-01 -4.368589999999999973e-01 -1.376199999999999923e-01 8.878120000000000456e-01 4.347170000000000201e-01 1.384150000000000102e-01 -8.847159999999999469e-01 4.350200000000000178e-01 1.370780000000000054e-01 -8.849500000000000144e-01 -4.361240000000000117e-01 -1.377369999999999983e-01 8.863210000000000255e-01 4.349959999999999938e-01 1.373790000000000011e-01 -8.844999999999999529e-01 4.342590000000000061e-01 1.384599999999999997e-01 -8.846420000000000394e-01 4.353400000000000047e-01 1.372269999999999879e-01 -8.842020000000000435e-01 -4.359230000000000049e-01 -1.373840000000000061e-01 8.872759999999999536e-01 -4.366110000000000269e-01 -1.374229999999999896e-01 8.874119999999999786e-01 4.347030000000000061e-01 1.381739999999999913e-01 -8.846340000000000314e-01 4.352739999999999942e-01 1.369889999999999997e-01 -8.854490000000000416e-01 -4.361410000000000009e-01 -1.372659999999999991e-01 8.873199999999999976e-01 -4.359669999999999934e-01 -1.382849999999999913e-01 8.857620000000000493e-01 4.351820000000000133e-01 1.374090000000000034e-01 -8.844809999999999617e-01 -4.364979999999999971e-01 -1.376100000000000101e-01 8.875990000000000268e-01 -4.358770000000000144e-01 -1.374470000000000136e-01 8.872529999999999584e-01 -4.364270000000000094e-01 -1.376139999999999863e-01 8.874180000000000401e-01 -4.359790000000000054e-01 -1.372639999999999971e-01 8.875340000000000451e-01 -4.359620000000000162e-01 -1.382549999999999890e-01 8.862839999999999607e-01 -4.364589999999999859e-01 -1.377859999999999918e-01 8.874969999999999803e-01 4.349689999999999945e-01 1.381060000000000065e-01 -8.847270000000000412e-01 4.351599999999999913e-01 1.374559999999999949e-01 -8.842619999999999925e-01 4.342130000000000156e-01 1.386139999999999872e-01 -8.844410000000000327e-01 4.348139999999999783e-01 1.375510000000000066e-01 -8.852269999999999861e-01 4.355430000000000135e-01 1.371040000000000036e-01 -8.846589999999999732e-01 4.347340000000000093e-01 1.378610000000000113e-01 -8.846030000000000282e-01 4.350109999999999810e-01 1.375709999999999988e-01 -8.844180000000000375e-01 -4.360789999999999944e-01 -1.377279999999999893e-01 8.877669999999999728e-01 -4.369149999999999978e-01 -1.378330000000000111e-01 8.880670000000000508e-01 4.342489999999999961e-01 1.383949999999999902e-01 -8.843800000000000550e-01 4.345660000000000078e-01 1.374400000000000066e-01 -8.853919999999999568e-01 -4.359799999999999787e-01 -1.376940000000000108e-01 8.875110000000000499e-01 -4.360240000000000227e-01 -1.378300000000000081e-01 8.862940000000000262e-01 4.351149999999999740e-01 1.369849999999999957e-01 -8.843910000000000382e-01 -4.365299999999999736e-01 -1.375029999999999863e-01 8.872989999999999489e-01 4.351419999999999733e-01 1.375899999999999901e-01 -8.848340000000000094e-01 -4.353859999999999952e-01 -1.378290000000000071e-01 8.861560000000000548e-01 4.349810000000000065e-01 1.369589999999999974e-01 -8.845370000000000177e-01 -4.364720000000000266e-01 -1.378020000000000078e-01 8.875870000000000148e-01 -4.359970000000000234e-01 -1.381719999999999893e-01 8.865250000000000075e-01 4.350390000000000090e-01 1.376670000000000116e-01 -8.848519999999999719e-01 -4.352909999999999835e-01 -1.379400000000000071e-01 8.860879999999999868e-01 4.348420000000000063e-01 1.375639999999999918e-01 -8.847209999999999797e-01 4.353040000000000243e-01 1.369199999999999862e-01 -8.844899999999999984e-01 -4.359839999999999827e-01 -1.380840000000000123e-01 8.868070000000000119e-01 -4.349959999999999938e-01 -1.383399999999999908e-01 8.858230000000000270e-01 -4.362809999999999744e-01 -1.374400000000000066e-01 8.870240000000000347e-01 -4.360680000000000112e-01 -1.385689999999999977e-01 8.864349999999999730e-01 -4.350780000000000203e-01 -1.381650000000000100e-01 8.857779999999999543e-01 -4.361829999999999874e-01 -1.385039999999999882e-01 8.861839999999999717e-01 4.347429999999999906e-01 1.380049999999999888e-01 -8.850789999999999491e-01 4.355649999999999800e-01 1.366860000000000019e-01 -8.848200000000000509e-01 4.346809999999999841e-01 1.380149999999999988e-01 -8.846359999999999779e-01 4.347719999999999918e-01 1.382599999999999940e-01 -8.853330000000000366e-01 4.354029999999999845e-01 1.363229999999999997e-01 -8.843680000000000430e-01 4.346090000000000231e-01 1.379289999999999961e-01 -8.849339999999999984e-01 -4.352889999999999815e-01 -1.379039999999999988e-01 8.857359999999999678e-01 4.353659999999999752e-01 1.367069999999999952e-01 -8.850890000000000146e-01 -4.362500000000000266e-01 -1.377589999999999926e-01 8.874919999999999476e-01 -4.361209999999999809e-01 -1.383610000000000118e-01 8.866610000000000325e-01 4.346849999999999881e-01 1.376020000000000021e-01 -8.842929999999999957e-01 -4.352719999999999922e-01 -1.379450000000000121e-01 8.866749999999999909e-01 4.347509999999999986e-01 1.380709999999999993e-01 -8.851820000000000244e-01 4.352400000000000158e-01 1.364039999999999975e-01 -8.842039999999999900e-01 -4.358679999999999777e-01 -1.380639999999999923e-01 8.868970000000000464e-01 4.344839999999999813e-01 1.380889999999999895e-01 -8.848599999999999799e-01 -4.364219999999999766e-01 -1.373020000000000074e-01 8.869099999999999762e-01 4.349459999999999993e-01 1.376120000000000121e-01 -8.845690000000000497e-01 -4.352480000000000238e-01 -1.383489999999999998e-01 8.855589999999999851e-01 4.345760000000000178e-01 1.376209999999999933e-01 -8.848939999999999584e-01 4.353150000000000075e-01 1.368850000000000067e-01 -8.847789999999999822e-01 -4.364549999999999819e-01 -1.374640000000000029e-01 8.872389999999999999e-01 -4.358239999999999892e-01 -1.382599999999999940e-01 8.858190000000000230e-01 -4.360559999999999992e-01 -1.381110000000000115e-01 8.872200000000000086e-01 -4.352509999999999990e-01 -1.378689999999999916e-01 8.863400000000000167e-01 -4.363159999999999816e-01 -1.374460000000000126e-01 8.870179999999999731e-01 -4.357570000000000054e-01 -1.383320000000000105e-01 8.866300000000000292e-01 4.345550000000000246e-01 1.373300000000000076e-01 -8.848169999999999646e-01 4.350629999999999775e-01 1.378520000000000023e-01 -8.845920000000000449e-01 4.344810000000000061e-01 1.383560000000000068e-01 -8.851130000000000386e-01 4.353099999999999747e-01 1.368759999999999977e-01 -8.845429999999999682e-01 4.344810000000000061e-01 1.376900000000000068e-01 -8.848549999999999471e-01 -4.359399999999999942e-01 -1.373139999999999916e-01 8.871210000000000484e-01 4.350950000000000095e-01 1.379579999999999973e-01 -8.852100000000000524e-01 -4.348629999999999995e-01 -1.376549999999999996e-01 8.861400000000000388e-01 4.344939999999999913e-01 1.378000000000000058e-01 -8.847409999999999997e-01 4.352630000000000110e-01 1.368149999999999922e-01 -8.844239999999999879e-01 -4.363819999999999921e-01 -1.379839999999999955e-01 8.869599999999999707e-01 -4.362309999999999799e-01 -1.381479999999999930e-01 8.863119999999999887e-01 5.389999999999999826e-04 -1.179999999999999951e-04 2.423999999999999939e-03 1.532412000000000107e+00 1.406126999999999905e+00 -1.809353999999999907e+00 1.531579000000000024e+00 1.408366999999999924e+00 -1.808696000000000081e+00 6.369999999999999794e-04 4.169999999999999987e-04 5.000000000000000240e-05 7.540000000000000044e-04 9.359999999999999831e-04 2.269999999999999882e-03 1.531992999999999938e+00 1.405974999999999975e+00 -1.809114000000000111e+00 3.440000000000000132e-04 -3.710000000000000190e-04 1.397000000000000021e-03 2.950000000000000148e-04 1.949999999999999965e-04 1.685000000000000083e-03 1.532373999999999903e+00 1.406180999999999903e+00 -1.809835000000000083e+00 1.532078000000000051e+00 1.406214000000000075e+00 -1.809668000000000054e+00 -1.531411000000000078e+00 -1.403963000000000072e+00 1.806978999999999891e+00 -1.530896000000000035e+00 -1.403842000000000034e+00 1.805611000000000077e+00 -1.531188999999999911e+00 -1.404630000000000045e+00 1.807261999999999924e+00 -1.531347000000000014e+00 -1.405524999999999913e+00 1.804920000000000080e+00 5.379999999999999583e-04 -8.019999999999999785e-04 1.229000000000000058e-03 1.532604000000000077e+00 1.406476000000000059e+00 -1.809960999999999931e+00 1.532331000000000110e+00 1.406349000000000071e+00 -1.809468000000000076e+00 3.480000000000000020e-04 -4.150000000000000043e-04 -1.520000000000000084e-03 3.119999999999999944e-04 1.279999999999999942e-04 1.443999999999999971e-03 1.532720000000000082e+00 1.406268000000000074e+00 -1.810262999999999955e+00 3.629999999999999872e-04 -1.500000000000000031e-03 4.699999999999999859e-04 3.699999999999999947e-04 -7.669999999999999951e-04 8.720000000000000537e-04 1.532467000000000024e+00 1.404222000000000081e+00 -1.809601000000000015e+00 1.532888000000000028e+00 1.403856999999999911e+00 -1.809582999999999942e+00 -1.530880999999999936e+00 -1.405467999999999940e+00 1.806799999999999962e+00 -1.530604999999999993e+00 -1.405982000000000065e+00 1.805751000000000106e+00 -1.531387000000000054e+00 -1.406336999999999948e+00 1.806543999999999928e+00 -1.531266000000000016e+00 -1.405642999999999976e+00 1.805156999999999901e+00 1.532211999999999907e+00 1.404357000000000077e+00 -1.811091000000000006e+00 1.530993000000000048e+00 1.406665000000000054e+00 -1.810098999999999902e+00 1.532054999999999945e+00 1.404131999999999936e+00 -1.811056999999999917e+00 1.531959000000000071e+00 1.405982999999999983e+00 -1.810616999999999921e+00 1.532197999999999949e+00 1.406155000000000044e+00 -1.810801000000000105e+00 4.769999999999999934e-04 -1.131000000000000061e-03 6.520000000000000188e-04 -1.530367999999999951e+00 -1.404360999999999970e+00 1.807047000000000070e+00 5.270000000000000162e-04 1.100000000000000039e-04 -1.118000000000000070e-03 -1.530815000000000037e+00 -1.406428999999999929e+00 1.805039000000000060e+00 3.299999999999999982e-04 -6.949999999999999798e-04 1.110000000000000092e-03 -1.531363000000000030e+00 -1.405094000000000065e+00 1.807226999999999917e+00 5.090000000000000123e-04 3.429999999999999889e-04 1.703000000000000087e-03 -1.530801000000000078e+00 -1.403670999999999891e+00 1.806297999999999959e+00 3.370000000000000057e-04 8.289999999999999843e-04 2.282999999999999873e-03 1.532418999999999976e+00 1.403307000000000082e+00 -1.810311999999999921e+00 2.660000000000000146e-04 -1.480999999999999895e-03 -1.440000000000000091e-03 2.999999999999999737e-04 -1.958000000000000105e-03 6.250000000000000130e-04 1.532168999999999892e+00 1.403358000000000105e+00 -1.810737999999999959e+00 1.531649000000000038e+00 1.406260999999999983e+00 -1.809652999999999956e+00 4.090000000000000211e-04 -7.820000000000000345e-04 -5.000000000000000104e-04 3.930000000000000117e-04 -9.229999999999999923e-04 9.060000000000000128e-04 1.531590000000000007e+00 1.406069999999999931e+00 -1.809547999999999934e+00 -1.531160000000000077e+00 -1.406438000000000077e+00 1.804977000000000054e+00 -1.531762000000000068e+00 -1.407119999999999926e+00 1.805447000000000024e+00 -1.531420999999999921e+00 -1.404252000000000056e+00 1.806278999999999968e+00 -1.531182000000000043e+00 -1.406630999999999965e+00 1.803916000000000075e+00 -1.531280999999999892e+00 -1.404999000000000109e+00 1.806632000000000016e+00 1.532473999999999892e+00 1.406131000000000020e+00 -1.809385000000000021e+00 3.490000000000000263e-04 -3.099999999999999999e-04 -1.170999999999999949e-03 3.820000000000000153e-04 -6.340000000000000149e-04 2.223999999999999849e-03 1.533104999999999940e+00 1.405648000000000009e+00 -1.809574000000000016e+00 1.531808000000000058e+00 1.406079999999999997e+00 -1.808319999999999927e+00 2.380000000000000117e-04 2.669999999999999847e-04 -7.200000000000000182e-05 5.469999999999999602e-04 6.210000000000000242e-04 1.840000000000000056e-03 1.532785000000000064e+00 1.408368000000000064e+00 -1.809369000000000005e+00 -1.530879000000000101e+00 -1.404578000000000104e+00 1.807539999999999925e+00 -1.531052999999999997e+00 -1.405265999999999904e+00 1.807711000000000068e+00 -1.530753999999999948e+00 -1.404587000000000030e+00 1.807636000000000021e+00 -1.530926999999999927e+00 -1.404142000000000001e+00 1.806813000000000002e+00 -1.531071000000000071e+00 -1.405235000000000012e+00 1.808011000000000035e+00 1.532702999999999927e+00 1.405421999999999949e+00 -1.811412999999999940e+00 1.532316999999999929e+00 1.405666000000000082e+00 -1.811453999999999898e+00 1.531346000000000096e+00 1.408571999999999935e+00 -1.810407000000000100e+00 1.531851000000000074e+00 1.406149000000000093e+00 -1.810588000000000086e+00 -1.530869999999999953e+00 -1.403564999999999952e+00 1.808116999999999974e+00 5.249999999999999676e-04 1.369999999999999961e-04 5.010000000000000347e-04 -1.531292000000000098e+00 -1.404660000000000020e+00 1.808415000000000106e+00 -9.200000000000000007e-05 -1.018000000000000025e-03 2.183000000000000045e-03 -1.531174000000000035e+00 -1.406455000000000011e+00 1.806964999999999932e+00 3.269999999999999795e-04 -1.041000000000000042e-03 -4.910000000000000085e-04 -1.531066000000000038e+00 -1.406076000000000104e+00 1.806758000000000086e+00 5.959999999999999586e-04 -1.150000000000000035e-04 1.701000000000000038e-03 -1.531462000000000101e+00 -1.407030000000000003e+00 1.807307999999999915e+00 1.531455000000000011e+00 1.408452000000000037e+00 -1.808408999999999933e+00 5.370000000000000424e-04 8.710000000000000294e-04 5.399999999999999798e-05 -3.119999999999999944e-04 2.599999999999999772e-04 3.233999999999999896e-03 1.532078999999999969e+00 1.406431999999999904e+00 -1.809501999999999944e+00 1.531638999999999973e+00 1.408255000000000035e+00 -1.808381000000000016e+00 3.710000000000000190e-04 1.451000000000000033e-03 4.449999999999999746e-04 -4.300000000000000165e-05 -5.559999999999999621e-04 1.794999999999999938e-03 1.532019000000000020e+00 1.406860999999999917e+00 -1.810079999999999911e+00 -1.530550999999999995e+00 -1.403990999999999989e+00 1.805752000000000024e+00 -1.531468999999999969e+00 -1.404093999999999953e+00 1.807320999999999955e+00 -1.532114999999999894e+00 -1.404333000000000053e+00 1.805828999999999906e+00 -1.530394999999999950e+00 -1.405923999999999952e+00 1.804928000000000088e+00 -1.531813000000000091e+00 -1.406630000000000047e+00 1.805668000000000051e+00 1.532526000000000055e+00 1.406406000000000045e+00 -1.809601000000000015e+00 7.110000000000000434e-04 -7.720000000000000083e-04 -1.681999999999999901e-03 -1.269999999999999970e-04 -3.110000000000000243e-04 1.168999999999999900e-03 1.532197999999999949e+00 1.407102000000000075e+00 -1.810680999999999985e+00 1.531770999999999994e+00 1.405944000000000083e+00 -1.809201999999999977e+00 7.039999999999999817e-04 2.190000000000000106e-04 -1.966999999999999998e-03 4.600000000000000139e-04 -1.623000000000000094e-03 5.119999999999999768e-04 1.532114999999999894e+00 1.404508000000000090e+00 -1.809766999999999904e+00 -1.530594999999999928e+00 -1.406268999999999991e+00 1.805919999999999970e+00 -1.531007999999999925e+00 -1.405931000000000042e+00 1.806659999999999933e+00 -1.531045999999999907e+00 -1.406449000000000060e+00 1.806070999999999982e+00 -1.530321999999999960e+00 -1.405774999999999997e+00 1.805037999999999920e+00 -1.531171000000000060e+00 -1.406287000000000065e+00 1.805560999999999972e+00 1.531689000000000078e+00 1.406323999999999907e+00 -1.810137000000000107e+00 1.531860999999999917e+00 1.405029000000000083e+00 -1.811325000000000074e+00 1.531808999999999976e+00 1.406487000000000043e+00 -1.810211999999999932e+00 1.531757999999999953e+00 1.406886999999999999e+00 -1.810861999999999972e+00 4.629999999999999784e-04 -2.110000000000000059e-04 -1.121999999999999950e-03 -1.530610999999999944e+00 -1.406690999999999914e+00 1.804853999999999958e+00 7.999999999999999638e-06 -1.382999999999999898e-03 8.350000000000000217e-04 -1.531274000000000024e+00 -1.404260999999999981e+00 1.807001000000000079e+00 7.969999999999999654e-04 4.859999999999999954e-04 -1.154000000000000078e-03 -1.531233000000000066e+00 -1.407365999999999895e+00 1.805485999999999924e+00 -1.530737000000000014e+00 -1.403146000000000004e+00 1.806294999999999984e+00 2.339999999999999958e-04 2.750000000000000166e-04 2.223000000000000149e-03 -1.531049000000000104e+00 -1.404066000000000036e+00 1.806292000000000009e+00 7.100000000000000191e-04 5.500000000000000196e-05 -9.120000000000000502e-04 9.489999999999999738e-04 -1.574000000000000095e-03 -1.784999999999999911e-03 1.531398000000000037e+00 1.406190999999999969e+00 -1.809198000000000084e+00 7.619999999999999820e-04 -7.709999999999999840e-04 -1.649000000000000075e-03 1.531700999999999979e+00 1.406139999999999946e+00 -1.809250999999999943e+00 8.869999999999999846e-04 -4.510000000000000120e-04 -5.699999999999999772e-04 -1.699999999999999987e-05 -1.495000000000000018e-03 8.520000000000000013e-04 1.532041999999999904e+00 1.403697999999999890e+00 -1.810808999999999891e+00 1.531857999999999942e+00 1.405137999999999998e+00 -1.809242000000000017e+00 1.531703999999999954e+00 1.405326999999999993e+00 -1.809214000000000100e+00 -1.531126999999999905e+00 -1.406857000000000024e+00 1.805207000000000006e+00 -1.530701000000000089e+00 -1.406088000000000005e+00 1.803754999999999997e+00 -1.531964000000000103e+00 -1.404476000000000058e+00 1.806642999999999999e+00 -1.531619999999999981e+00 -1.407092000000000009e+00 1.804152999999999896e+00 6.470000000000000057e-04 8.570000000000000144e-04 -3.899999999999999929e-04 4.589999999999999896e-04 -5.019999999999999506e-04 -9.680000000000000019e-04 1.532153000000000098e+00 1.405718000000000023e+00 -1.808097000000000065e+00 8.649999999999999920e-04 3.620000000000000171e-04 -1.276000000000000007e-03 1.532245999999999997e+00 1.405758999999999981e+00 -1.808558000000000110e+00 6.310000000000000504e-04 3.080000000000000055e-04 -5.479999999999999845e-04 -1.430000000000000064e-04 -2.460000000000000164e-04 2.334000000000000137e-03 1.531983000000000095e+00 1.406234999999999902e+00 -1.809395000000000087e+00 1.531884000000000023e+00 1.408509999999999929e+00 -1.809066000000000063e+00 1.531663999999999914e+00 1.408330000000000082e+00 -1.808675000000000033e+00 -1.531379000000000046e+00 -1.404873000000000038e+00 1.808073000000000041e+00 -1.530067999999999984e+00 -1.404295000000000071e+00 1.806756999999999946e+00 -1.531199999999999894e+00 -1.404725999999999919e+00 1.807811000000000057e+00 -1.530928000000000067e+00 -1.405040000000000067e+00 1.806899000000000033e+00 1.532010000000000094e+00 1.408112999999999948e+00 -1.809957000000000038e+00 1.530894999999999895e+00 1.408055999999999974e+00 -1.809957000000000038e+00 1.531443000000000110e+00 1.405583000000000027e+00 -1.811102999999999907e+00 1.531617000000000006e+00 1.405934000000000017e+00 -1.810667000000000026e+00 1.531854000000000049e+00 1.405990999999999991e+00 -1.810797999999999908e+00 6.989999999999999686e-04 3.930000000000000117e-04 3.780000000000000265e-04 -1.531258000000000008e+00 -1.403645999999999949e+00 1.808178000000000063e+00 7.640000000000000306e-04 1.185000000000000072e-03 -2.120000000000000031e-04 5.330000000000000536e-04 -1.505000000000000044e-03 -8.120000000000000048e-04 -1.530006999999999895e+00 -1.406303000000000081e+00 1.806623000000000090e+00 2.359999999999999902e-04 -6.939999999999999555e-04 1.877999999999999895e-03 -1.530941000000000107e+00 -1.406930999999999932e+00 1.807058999999999971e+00 4.629999999999999784e-04 -6.120000000000000223e-04 -6.530000000000000431e-04 -1.531150999999999929e+00 -1.406222000000000083e+00 1.806483999999999979e+00