8.530690419245510157e+02 -2.994474783922545384e+02 -2.539875259211069078e+02 -2.994474783922545384e+02 9.185639807274507120e+02 -3.678982664923887000e+02 -2.539875259211069078e+02 -3.678982664923887000e+02 3.530325341717731931e+02
8.530802929911264982e+02 -2.994104181697646823e+02 -2.541847071533744895e+02 -2.994104181697646823e+02 9.185646996454427153e+02 -3.679545577711656392e+02 -2.541847071533744895e+02 -3.679545577711656392e+02 3.534266989338605072e+02
8.527325164124756611e+02 -2.993460570365270428e+02 -2.543933731005649577e+02 -2.993460570365270428e+02 9.181062636148667480e+02 -3.678990213562803433e+02 -2.543933731005649577e+02 -3.678990213562803433e+02 3.534112421970315836e+02
8.532415103508421907e+02 -2.991102878810365269e+02 -2.544945248620453810e+02 -2.991102878810365269e+02 9.181284602078710577e+02 -3.676593161247834018e+02 -2.544945248620453810e+02 -3.676593161247834018e+02 3.543787440577733037e+02
8.535508068439687577e+02 -2.988735841321563953e+02 -2.546063705286574645e+02 -2.988735841321563953e+02 9.179047149557974308e+02 -3.673051052301038339e+02 -2.546063705286574645e+02 -3.673051052301038339e+02 3.549372175269420495e+02
8.535091635192796957e+02 -2.985881916622651033e+02 -2.546446708846835634e+02 -2.985881916622651033e+02 9.171205911018761299e+02 -3.668555837826291395e+02 -2.546446708846835634e+02 -3.668555837826291395e+02 3.552206329723551903e+02
8.544447993400240193e+02 -2.982440815653737332e+02 -2.547123210677348197e+02 -2.982440815653737332e+02 9.173466368915242128e+02 -3.662581449582916662e+02 -2.547123210677348197e+02 -3.662581449582916662e+02 3.563147542644454688e+02
8.540677448261473046e+02 -2.978534574743971461e+02 -2.546715763905357903e+02 -2.978534574743971461e+02 9.158589978635395710e+02 -3.655579368069915631e+02 -2.546715763905357903e+02 -3.655579368069915631e+02 3.560630071565817616e+02
8.553886487988276031e+02 -2.973981667100363211e+02 -2.546256914496936190e+02 -2.973981667100363211e+02 9.161112302410477923e+02 -3.646948218386945655e+02 -2.546256914496936190e+02 -3.646948218386945655e+02 3.574750699306530350e+02
8.545947836061141061e+02 -2.969220273239062635e+02 -2.544971129668167578e+02 -2.969220273239062635e+02 9.139038105194296122e+02 -3.637671120888124392e+02 -2.544971129668167578e+02 -3.637671120888124392e+02 3.566785806872686067e+02
