2.884749999999999925e+00 2.999299999999999855e+00 3.918779999999999930e+00 7.775100000000000344e-01 3.687460000000000182e+00 1.860349999999999948e+00 2.214500000000000135e+00 1.052200000000000024e+00 1.860379999999999923e+00 4.119580000000000020e+00 3.687460000000000182e+00 1.860340000000000105e+00 2.228000000000000203e+00 4.227450000000000152e+00 7.662250000000000227e+00 3.664979999999999905e+00 1.592189999999999994e+00 7.662300000000000111e+00 5.570070000000000299e+00 4.227450000000000152e+00 7.662250000000000227e+00 6.226799999999999891e+00 2.999299999999999855e+00 3.918779999999999930e+00 4.335219999999999629e+00 3.539289999999999825e+00 9.720710000000000406e+00 5.785689999999999777e+00 4.079279999999999795e+00 1.552260000000000062e+01 3.678479999999999972e+00 4.767439999999999678e+00 1.346416999999999931e+01 5.115450000000000053e+00 2.132179999999999964e+00 1.346419000000000032e+01 7.020529999999999937e+00 4.767430000000000057e+00 1.346416999999999931e+01 7.677270000000000039e+00 3.539289999999999825e+00 9.720700000000000784e+00 3.352879999999999860e+00 8.269849999999999923e+00 3.918789999999999996e+00 2.682640000000000136e+00 6.322739999999999583e+00 1.860370000000000079e+00 4.789850000000000385e+00 5.634590000000000209e+00 3.918779999999999930e+00 4.133130000000000415e+00 6.862729999999999997e+00 7.662279999999999980e+00 4.803359999999999630e+00 8.809850000000000847e+00 9.720700000000000784e+00 6.240330000000000155e+00 6.174579999999999735e+00 9.720700000000000784e+00 6.253840000000000288e+00 9.349830000000000751e+00 1.552261999999999986e+01 5.583590000000000053e+00 7.402720000000000411e+00 1.346419000000000032e+01 7.690809999999999924e+00 6.714559999999999640e+00 1.552261999999999986e+01 8.145429999999999282e+00 8.809839999999999449e+00 9.720700000000000784e+00 9.595900000000000318e+00 9.349819999999999354e+00 1.552260000000000062e+01 1.245670000000000055e+00 8.958000000000000185e+00 1.860349999999999948e+00 4.587729999999999642e+00 8.958000000000000185e+00 1.860349999999999948e+00 3.150790000000000202e+00 1.159329999999999927e+01 1.860379999999999923e+00 5.257990000000000386e+00 1.090512999999999977e+01 3.918779999999999930e+00 2.696140000000000203e+00 9.498010000000000730e+00 7.662250000000000227e+00 6.038210000000000299e+00 9.497999999999999332e+00 7.662239999999999718e+00 4.601259999999999906e+00 1.213330000000000020e+01 7.662279999999999980e+00 6.708459999999999646e+00 1.144513000000000069e+01 9.720700000000000784e+00 4.146620000000000417e+00 1.003797999999999924e+01 1.346416999999999931e+01 7.488679999999999559e+00 1.003800000000000026e+01 1.346415999999999968e+01 6.051739999999999675e+00 1.267328000000000010e+01 1.346419999999999995e+01 8.158939999999999415e+00 1.198511000000000060e+01 1.552260000000000062e+01 3.366410000000000124e+00 1.144511999999999929e+01 9.720700000000000784e+00 5.726130000000000386e+00 1.617568999999999946e+01 3.918779999999999930e+00 3.821019999999999861e+00 1.354040999999999961e+01 3.918789999999999996e+00 1.713819999999999899e+00 1.422856999999999950e+01 1.860340000000000105e+00 5.055869999999999642e+00 1.422856999999999950e+01 1.860340000000000105e+00 3.164280000000000204e+00 1.476853999999999978e+01 7.662259999999999849e+00 6.506359999999999921e+00 1.476856000000000080e+01 7.662250000000000227e+00 7.163090000000000401e+00 1.354039999999999999e+01 3.918789999999999996e+00 7.176610000000000156e+00 1.671568999999999861e+01 9.720710000000000406e+00 5.271510000000000140e+00 1.408039999999999914e+01 9.720689999999999387e+00 8.627090000000000813e+00 1.725568000000000168e+01 1.552261000000000024e+01 6.722000000000000419e+00 1.462039000000000044e+01 1.552261000000000024e+01 4.614760000000000417e+00 1.530854000000000070e+01 1.346415999999999968e+01 7.956830000000000069e+00 1.530852999999999930e+01 1.346416999999999931e+01 1.006404999999999994e+01 1.462038000000000082e+01 1.552261999999999986e+01 3.834560000000000191e+00 1.671567999999999898e+01 9.720710000000000406e+00 5.556560000000000166e+00 1.052189999999999959e+00 1.860379999999999923e+00 9.568870000000000431e+00 2.999309999999999921e+00 3.918779999999999930e+00 7.461640000000000050e+00 3.687460000000000182e+00 1.860340000000000105e+00 8.898630000000000706e+00 1.052200000000000024e+00 1.860379999999999923e+00 7.007030000000000314e+00 1.592179999999999929e+00 7.662289999999999601e+00 8.912119999999999820e+00 4.227450000000000152e+00 7.662250000000000227e+00 1.034909999999999997e+01 1.592189999999999994e+00 7.662289999999999601e+00 1.101933999999999969e+01 3.539299999999999891e+00 9.720689999999999387e+00 8.457520000000000593e+00 2.132179999999999964e+00 1.346419999999999995e+01 1.246982000000000035e+01 4.079270000000000174e+00 1.552260000000000062e+01 1.036261000000000010e+01 4.767439999999999678e+00 1.346415999999999968e+01 1.179958000000000062e+01 2.132169999999999899e+00 1.346419000000000032e+01 9.127760000000000318e+00 4.079270000000000174e+00 1.552260000000000062e+01 6.024720000000000297e+00 6.322759999999999714e+00 1.860370000000000079e+00 8.131909999999999528e+00 5.634590000000000209e+00 3.918779999999999930e+00 1.003701000000000043e+01 8.269859999999999545e+00 3.918789999999999996e+00 9.366780000000000328e+00 6.322750000000000092e+00 1.860370000000000079e+00 7.475179999999999936e+00 6.862739999999999618e+00 7.662289999999999601e+00 1.081723999999999997e+01 6.862739999999999618e+00 7.662289999999999601e+00 1.147396999999999956e+01 5.634599999999999831e+00 3.918789999999999996e+00 6.694960000000000022e+00 8.269849999999999923e+00 3.918789999999999996e+00 9.582390000000000185e+00 6.174570000000000114e+00 9.720689999999999387e+00 1.148748999999999931e+01 8.809839999999999449e+00 9.720700000000000784e+00 8.925670000000000215e+00 7.402730000000000032e+00 1.346420999999999957e+01 1.103285999999999945e+01 6.714570000000000149e+00 1.552261000000000024e+01 1.293796999999999997e+01 9.349830000000000751e+00 1.552260000000000062e+01 1.226773000000000025e+01 7.402730000000000032e+00 1.346419999999999995e+01 1.292445000000000022e+01 6.174570000000000114e+00 9.720689999999999387e+00 1.437493000000000087e+01 6.714559999999999640e+00 1.552261999999999986e+01 7.929800000000000182e+00 8.958019999999999428e+00 1.860349999999999948e+00 6.492849999999999788e+00 1.159331000000000067e+01 1.860379999999999923e+00 8.600049999999999528e+00 1.090513999999999939e+01 3.918779999999999930e+00 9.834910000000000707e+00 1.159329999999999927e+01 1.860389999999999988e+00 9.380269999999999442e+00 9.497999999999999332e+00 7.662250000000000227e+00 7.943329999999999558e+00 1.213327999999999918e+01 7.662279999999999980e+00 1.128539999999999921e+01 1.213330000000000020e+01 7.662289999999999601e+00 1.194210999999999956e+01 1.090515000000000079e+01 3.918779999999999930e+00 1.005053999999999981e+01 1.144513000000000069e+01 9.720700000000000784e+00 1.083074000000000048e+01 1.003800000000000026e+01 1.346415999999999968e+01 9.393819999999999837e+00 1.267328999999999972e+01 1.346419000000000032e+01 1.150101000000000084e+01 1.198512999999999984e+01 1.552261000000000024e+01 1.273587000000000025e+01 1.267328000000000010e+01 1.346419999999999995e+01 1.484307000000000087e+01 1.198512999999999984e+01 1.552261000000000024e+01 9.068210000000000548e+00 1.617568999999999946e+01 3.918800000000000061e+00 1.050516999999999967e+01 1.354039999999999999e+01 3.918779999999999930e+00 8.397949999999999804e+00 1.422856999999999950e+01 1.860340000000000105e+00 9.848420000000000840e+00 1.476856000000000080e+01 7.662259999999999849e+00 1.241027000000000058e+01 1.617569999999999908e+01 3.918789999999999996e+00 1.051867999999999981e+01 1.671568999999999861e+01 9.720700000000000784e+00 1.195564000000000071e+01 1.408039999999999914e+01 9.720700000000000784e+00 1.196916000000000047e+01 1.725565999999999889e+01 1.552261999999999986e+01 1.340610999999999997e+01 1.462038000000000082e+01 1.552261000000000024e+01 1.129889999999999972e+01 1.530854000000000070e+01 1.346415999999999968e+01 1.531122000000000050e+01 1.725566999999999851e+01 1.552261999999999986e+01 8.613580000000000680e+00 1.408039999999999914e+01 9.720700000000000784e+00 8.785399999999999876e-01 2.025749999999999940e+00 2.889559999999999906e+00 1.503079999999999972e+00 3.956620000000000026e+00 4.763829999999999565e+00 2.159209999999999852e+00 2.730129999999999946e+00 1.015439999999999898e+00 2.541399999999999770e-01 9.482999999999999763e-02 1.015419999999999989e+00 2.940059999999999896e+00 1.321369999999999933e+00 4.763889999999999958e+00 4.220600000000000129e+00 2.025760000000000005e+00 2.889549999999999841e+00 4.845150000000000290e+00 3.956630000000000091e+00 4.763840000000000074e+00 3.596179999999999932e+00 9.482000000000000151e-02 1.015419999999999989e+00 2.329000000000000181e+00 2.565749999999999975e+00 8.691459999999999297e+00 3.609700000000000131e+00 3.270119999999999916e+00 6.817359999999999864e+00 1.704599999999999893e+00 6.348200000000000509e-01 6.817339999999999733e+00 5.671070000000000277e+00 2.565749999999999975e+00 8.691480000000000317e+00 5.046660000000000146e+00 6.348099999999999854e-01 6.817339999999999733e+00 2.953559999999999963e+00 4.496599999999999930e+00 1.056573999999999991e+01 4.390530000000000044e+00 1.861359999999999904e+00 1.056579999999999941e+01 6.295630000000000059e+00 4.496610000000000440e+00 1.056573999999999991e+01 3.779500000000000082e+00 3.105729999999999880e+00 1.449338000000000015e+01 4.404040000000000177e+00 5.036590000000000344e+00 1.636766000000000076e+01 5.060179999999999900e+00 3.810109999999999886e+00 1.261927000000000021e+01 3.155079999999999885e+00 1.174800000000000066e+00 1.261923999999999957e+01 5.841020000000000323e+00 2.401339999999999808e+00 1.636769999999999925e+01 7.121540000000000425e+00 3.105729999999999880e+00 1.449338000000000015e+01 7.746100000000000207e+00 5.036599999999999966e+00 1.636767000000000039e+01 6.497150000000000425e+00 1.174800000000000066e+00 1.261923999999999957e+01 5.514820000000000277e+00 5.905369999999999564e+00 6.817350000000000243e+00 2.783659999999999801e+00 4.661030000000000229e+00 2.889619999999999855e+00 1.346680000000000099e+00 7.296310000000000073e+00 2.889559999999999906e+00 7.222600000000000131e-01 5.365380000000000038e+00 1.015430000000000055e+00 3.408209999999999962e+00 6.591920000000000002e+00 4.763899999999999579e+00 4.688740000000000130e+00 7.296299999999999564e+00 2.889549999999999841e+00 4.064339999999999620e+00 5.365370000000000417e+00 1.015430000000000055e+00 4.234140000000000015e+00 5.201019999999999754e+00 8.691539999999999822e+00 2.797159999999999869e+00 7.836289999999999978e+00 8.691459999999999297e+00 2.172750000000000181e+00 5.905369999999999564e+00 6.817350000000000243e+00 6.139230000000000409e+00 7.836299999999999599e+00 8.691459999999999297e+00 6.965279999999999916e+00 6.445359999999999978e+00 1.261926000000000059e+01 7.589699999999999669e+00 8.376279999999999504e+00 1.449338999999999977e+01 4.858690000000000175e+00 7.131910000000000416e+00 1.056579999999999941e+01 5.684619999999999784e+00 5.741019999999999790e+00 1.449343999999999966e+01 4.247639999999999638e+00 8.376289999999999125e+00 1.449337000000000053e+01 3.623240000000000016e+00 6.445350000000000357e+00 1.261923999999999957e+01 6.309160000000000323e+00 7.671899999999999942e+00 1.636770999999999887e+01 5.982960000000000278e+00 1.117592999999999925e+01 6.817350000000000243e+00 1.971230000000000038e+00 9.227180000000000604e+00 4.763840000000000074e+00 2.627359999999999918e+00 8.000690000000000524e+00 1.015439999999999898e+00 3.251809999999999867e+00 9.931589999999999918e+00 2.889619999999999855e+00 5.313299999999999912e+00 9.227180000000000604e+00 4.763829999999999565e+00 1.190420000000000034e+00 1.063593999999999973e+01 1.015419999999999989e+00 3.876349999999999962e+00 1.186247000000000007e+01 4.763889999999999958e+00 4.532490000000000130e+00 1.063592000000000048e+01 1.015430000000000055e+00 4.077840000000000131e+00 8.540680000000000049e+00 6.817359999999999864e+00 4.702289999999999637e+00 1.047159000000000084e+01 8.691539999999999822e+00 2.640899999999999803e+00 1.117592999999999925e+01 6.817339999999999733e+00 7.433430000000000426e+00 1.171590999999999916e+01 1.261924999999999919e+01 6.777319999999999567e+00 1.294246000000000052e+01 1.636769999999999925e+01 3.421710000000000029e+00 9.767160000000000508e+00 1.056573999999999991e+01 6.763770000000000060e+00 9.767170000000000130e+00 1.056573999999999991e+01 5.326839999999999797e+00 1.240245999999999960e+01 1.056579999999999941e+01 4.872200000000000308e+00 1.030715999999999966e+01 1.636766000000000076e+01 5.528319999999999901e+00 9.080659999999999954e+00 1.261926000000000059e+01 6.152770000000000294e+00 1.101157000000000075e+01 1.449344999999999928e+01 8.214249999999999829e+00 1.030715000000000003e+01 1.636765000000000114e+01 4.091380000000000017e+00 1.171589999999999954e+01 1.261926000000000059e+01 6.607370000000000410e+00 1.310684999999999967e+01 8.691459999999999297e+00 1.814820000000000100e+00 1.256685000000000052e+01 2.889549999999999841e+00 2.439369999999999816e+00 1.449773000000000067e+01 4.763840000000000074e+00 3.095509999999999984e+00 1.327125000000000021e+01 1.015430000000000055e+00 3.719949999999999868e+00 1.520214999999999961e+01 2.889619999999999855e+00 5.156880000000000130e+00 1.256686000000000014e+01 2.889559999999999906e+00 5.781439999999999912e+00 1.449771999999999927e+01 4.763840000000000074e+00 3.265299999999999869e+00 1.310684999999999967e+01 8.691470000000000695e+00 4.546000000000000263e+00 1.381123999999999974e+01 6.817359999999999864e+00 5.170440000000000147e+00 1.574213999999999913e+01 8.691530000000000200e+00 8.682410000000000849e+00 1.557770999999999972e+01 1.636766000000000076e+01 8.057840000000000558e+00 1.364682999999999957e+01 1.449338999999999977e+01 3.889860000000000095e+00 1.503771000000000058e+01 1.056574999999999953e+01 7.231919999999999682e+00 1.503772999999999982e+01 1.056574999999999953e+01 4.715779999999999639e+00 1.364685000000000059e+01 1.449337000000000053e+01 5.340349999999999930e+00 1.557770999999999972e+01 1.636765000000000114e+01 5.996459999999999901e+00 1.435121999999999964e+01 1.261926000000000059e+01 6.620919999999999916e+00 1.628211999999999904e+01 1.449344999999999928e+01 8.388730000000000686e+00 6.348099999999999854e-01 6.817339999999999733e+00 5.501290000000000013e+00 2.730129999999999946e+00 1.015439999999999898e+00 6.282130000000000436e+00 1.321379999999999999e+00 4.763899999999999579e+00 7.562649999999999650e+00 2.025760000000000005e+00 2.889549999999999841e+00 8.187219999999999942e+00 3.956620000000000026e+00 4.763840000000000074e+00 8.843339999999999534e+00 2.730129999999999946e+00 1.015439999999999898e+00 6.938250000000000028e+00 9.482999999999999763e-02 1.015419999999999989e+00 9.624200000000000088e+00 1.321369999999999933e+00 4.763880000000000337e+00 6.951760000000000161e+00 3.270129999999999981e+00 6.817350000000000243e+00 9.013149999999999551e+00 2.565739999999999910e+00 8.691470000000000695e+00 1.029382000000000019e+01 3.270119999999999916e+00 6.817339999999999733e+00 1.252515000000000001e+01 2.401339999999999808e+00 1.636770999999999887e+01 9.839219999999999189e+00 1.174800000000000066e+00 1.261924999999999919e+01 7.732599999999999696e+00 1.861359999999999904e+00 1.056581000000000081e+01 9.637700000000000600e+00 4.496620000000000061e+00 1.056573999999999991e+01 1.107466999999999935e+01 1.861359999999999904e+00 1.056579999999999941e+01 8.402240000000000819e+00 3.810119999999999951e+00 1.261924999999999919e+01 9.183070000000000732e+00 2.401359999999999939e+00 1.636771999999999849e+01 1.046362000000000059e+01 3.105739999999999945e+00 1.449338000000000015e+01 1.108817999999999948e+01 5.036590000000000344e+00 1.636766000000000076e+01 1.174428999999999945e+01 3.810119999999999951e+00 1.261927000000000021e+01 8.856889999999999930e+00 5.905369999999999564e+00 6.817339999999999733e+00 6.125729999999999897e+00 4.661030000000000229e+00 2.889619999999999855e+00 9.467790000000000816e+00 4.661050000000000360e+00 2.889619999999999855e+00 6.750270000000000437e+00 6.591920000000000002e+00 4.763889999999999958e+00 8.030799999999999272e+00 7.296310000000000073e+00 2.889559999999999906e+00 7.406410000000000160e+00 5.365370000000000417e+00 1.015430000000000055e+00 1.009234000000000009e+01 6.591929999999999623e+00 4.763880000000000337e+00 7.576209999999999667e+00 5.201030000000000264e+00 8.691539999999999822e+00 1.091827999999999932e+01 5.201030000000000264e+00 8.691539999999999822e+00 9.481289999999999552e+00 7.836299999999999599e+00 8.691470000000000695e+00 1.299329000000000001e+01 7.671909999999999563e+00 1.636770999999999887e+01 1.030735999999999919e+01 6.445350000000000357e+00 1.261926000000000059e+01 8.200749999999999318e+00 7.131899999999999906e+00 1.056579999999999941e+01 1.154280999999999935e+01 7.131920000000000037e+00 1.056579999999999941e+01 9.026690000000000325e+00 5.741010000000000169e+00 1.449343999999999966e+01 1.236875000000000036e+01 5.741019999999999790e+00 1.449343999999999966e+01 9.651220000000000354e+00 7.671899999999999942e+00 1.636769999999999925e+01 1.093174999999999919e+01 8.376289999999999125e+00 1.449337000000000053e+01 5.969420000000000393e+00 8.000690000000000524e+00 1.015439999999999898e+00 6.593880000000000408e+00 9.931589999999999918e+00 2.889629999999999921e+00 8.655369999999999564e+00 9.227169999999999206e+00 4.763840000000000074e+00 9.311489999999999156e+00 8.000679999999999126e+00 1.015439999999999898e+00 9.935930000000000817e+00 9.931599999999999540e+00 2.889619999999999855e+00 7.218410000000000437e+00 1.186247999999999969e+01 4.763899999999999579e+00 7.874550000000000161e+00 1.063593999999999973e+01 1.015439999999999898e+00 1.056048000000000009e+01 1.186247000000000007e+01 4.763889999999999958e+00 7.419900000000000162e+00 8.540680000000000049e+00 6.817359999999999864e+00 8.044359999999999289e+00 1.047157999999999944e+01 8.691530000000000200e+00 1.076196999999999981e+01 8.540689999999999671e+00 6.817359999999999864e+00 1.138640999999999970e+01 1.047157999999999944e+01 8.691530000000000200e+00 9.325029999999999930e+00 1.117592999999999925e+01 6.817339999999999733e+00 1.010584000000000060e+01 9.767170000000000130e+00 1.056574999999999953e+01 8.668900000000000716e+00 1.240245999999999960e+01 1.056581000000000081e+01 1.201096000000000075e+01 1.240246999999999922e+01 1.056579999999999941e+01 8.870390000000000441e+00 9.080669999999999575e+00 1.261926000000000059e+01 9.494830000000000325e+00 1.101155999999999935e+01 1.449344999999999928e+01 1.155633000000000088e+01 1.030715999999999966e+01 1.636767000000000039e+01 1.221245000000000047e+01 9.080659999999999954e+00 1.261926000000000059e+01 1.283689000000000036e+01 1.101157000000000075e+01 1.449343999999999966e+01 1.011937999999999960e+01 1.294244999999999912e+01 1.636770999999999887e+01 1.077551000000000059e+01 1.171590999999999916e+01 1.261924999999999919e+01 1.346143999999999963e+01 1.294244999999999912e+01 1.636770999999999887e+01 1.185455999999999932e+01 1.574213999999999913e+01 8.691539999999999822e+00 6.437570000000000014e+00 1.327124000000000059e+01 1.015449999999999964e+00 7.062020000000000408e+00 1.520214999999999961e+01 2.889629999999999921e+00 8.498950000000000671e+00 1.256686000000000014e+01 2.889549999999999841e+00 9.123499999999999943e+00 1.449774000000000029e+01 4.763840000000000074e+00 9.779640000000000555e+00 1.327125000000000021e+01 1.015439999999999898e+00 1.040409000000000006e+01 1.520214999999999961e+01 2.889619999999999855e+00 7.888060000000000294e+00 1.381122000000000050e+01 6.817350000000000243e+00 8.512489999999999668e+00 1.574211999999999989e+01 8.691530000000000200e+00 9.949419999999999931e+00 1.310684999999999967e+01 8.691470000000000695e+00 1.123011999999999944e+01 1.381123000000000012e+01 6.817339999999999733e+00 1.330503999999999998e+01 1.628212999999999866e+01 1.449343999999999966e+01 1.268059000000000047e+01 1.435121999999999964e+01 1.261926000000000059e+01 1.057399000000000022e+01 1.503772000000000020e+01 1.056573999999999991e+01 9.338530000000000442e+00 1.435121000000000002e+01 1.261926000000000059e+01 9.962989999999999569e+00 1.628211999999999904e+01 1.449343999999999966e+01 1.139991999999999983e+01 1.364683999999999919e+01 1.449338999999999977e+01 1.202447000000000088e+01 1.557770000000000010e+01 1.636767000000000039e+01