-2.540994699580000088e+03
-2.541042852990000029e+03
-2.541163800780000201e+03
-2.541360012619999907e+03
-2.541635432059999857e+03
-2.541995095639999818e+03
-2.542445057750000160e+03
-2.542992264970000178e+03
-2.543644189199999801e+03
-2.544408685549999973e+03
