1.695240000000000080e-01 3.107670000000000154e-01 1.536348000000000047e+00 -1.716290000000000038e-01 -3.112019999999999786e-01 -1.534968000000000110e+00 -1.708149999999999946e-01 -3.118319999999999981e-01 -1.534848999999999908e+00 -1.718389999999999918e-01 -3.111970000000000014e-01 -1.534979000000000093e+00 -1.718089999999999895e-01 -3.109859999999999847e-01 -1.534877999999999965e+00 -1.710099999999999953e-01 -3.120959999999999845e-01 -1.535055999999999976e+00 -1.719930000000000070e-01 -3.111410000000000009e-01 -1.534564000000000039e+00 1.695810000000000095e-01 3.110519999999999952e-01 1.536299999999999999e+00 1.695260000000000100e-01 3.112030000000000074e-01 1.536054000000000030e+00 1.698010000000000075e-01 3.109489999999999754e-01 1.536297000000000024e+00 -1.719390000000000085e-01 -3.110100000000000087e-01 -1.534677999999999987e+00 -1.705319999999999891e-01 -3.124040000000000150e-01 -1.534337000000000062e+00 -1.711040000000000061e-01 -3.108040000000000247e-01 -1.534815000000000040e+00 1.699360000000000037e-01 3.107929999999999859e-01 1.536094999999999988e+00 1.696249999999999980e-01 3.111419999999999741e-01 1.535949000000000009e+00 -1.707249999999999879e-01 -3.115240000000000231e-01 -1.535465999999999998e+00 1.697569999999999912e-01 3.106419999999999737e-01 1.536977000000000038e+00 -1.709199999999999886e-01 -3.113099999999999756e-01 -1.535554000000000086e+00 1.702490000000000114e-01 3.107550000000000034e-01 1.535368000000000066e+00 1.700510000000000077e-01 3.107940000000000147e-01 1.536653999999999964e+00 1.697940000000000005e-01 3.114790000000000059e-01 1.535441999999999974e+00 -1.705790000000000084e-01 -3.116729999999999778e-01 -1.535468000000000055e+00 1.701010000000000022e-01 3.105280000000000262e-01 1.536454999999999904e+00 1.697170000000000067e-01 3.111860000000000182e-01 1.535800000000000054e+00 1.695129999999999970e-01 3.112480000000000246e-01 1.535700000000000065e+00 -1.720820000000000127e-01 -3.107949999999999879e-01 -1.533979999999999899e+00 -1.716650000000000120e-01 -3.110959999999999837e-01 -1.533995999999999915e+00 -1.704440000000000122e-01 -3.110649999999999804e-01 -1.535627999999999993e+00 1.687629999999999963e-01 3.116410000000000013e-01 1.536353999999999997e+00 -1.717380000000000018e-01 -3.116479999999999806e-01 -1.534154000000000018e+00 -1.721219999999999972e-01 -3.113210000000000144e-01 -1.533908000000000049e+00 -1.710980000000000001e-01 -3.117190000000000238e-01 -1.535314999999999985e+00 1.696809999999999985e-01 3.118040000000000256e-01 1.536019000000000023e+00 -1.716890000000000083e-01 -3.111119999999999997e-01 -1.534291999999999989e+00 -1.714720000000000133e-01 -3.119029999999999858e-01 -1.534054000000000029e+00 -1.706390000000000129e-01 -3.111599999999999921e-01 -1.535725000000000007e+00 1.690830000000000111e-01 3.117440000000000211e-01 1.536276999999999893e+00 1.688739999999999963e-01 3.123139999999999805e-01 1.536361000000000088e+00 1.688669999999999893e-01 3.117240000000000011e-01 1.535792000000000046e+00 1.705019999999999869e-01 3.098319999999999963e-01 1.536418999999999979e+00 -1.714479999999999893e-01 -3.108929999999999749e-01 -1.534658000000000078e+00 -1.714279999999999970e-01 -3.115109999999999824e-01 -1.534670999999999896e+00 -1.718709999999999960e-01 -3.108000000000000207e-01 -1.534909999999999997e+00 -1.716620000000000090e-01 -3.111780000000000102e-01 -1.534656000000000020e+00 1.704440000000000122e-01 3.102150000000000185e-01 1.536230999999999902e+00 1.693070000000000130e-01 3.113779999999999881e-01 1.535717999999999916e+00 1.707309999999999939e-01 3.100189999999999890e-01 1.536540999999999935e+00 1.693679999999999908e-01 3.112460000000000226e-01 1.535655999999999910e+00 1.707889999999999964e-01 3.100769999999999915e-01 1.536464999999999970e+00 -1.715689999999999993e-01 -3.109219999999999762e-01 -1.534982000000000069e+00 -1.710409999999999986e-01 -3.110299999999999732e-01 -1.535139000000000031e+00 1.704229999999999912e-01 3.100859999999999728e-01 1.536221000000000059e+00 1.688149999999999928e-01 3.118210000000000148e-01 1.535692999999999975e+00 -1.710619999999999918e-01 -3.118639999999999746e-01 -1.534975999999999896e+00 1.692859999999999920e-01 3.110189999999999899e-01 1.536297999999999941e+00 -1.718889999999999862e-01 -3.109939999999999927e-01 -1.534785999999999984e+00 -1.707799999999999874e-01 -3.120919999999999805e-01 -1.534761000000000042e+00 -1.709179999999999866e-01 -3.118989999999999818e-01 -1.535049000000000108e+00 -1.719030000000000002e-01 -3.111059999999999937e-01 -1.534790000000000099e+00 -1.708909999999999874e-01 -3.122289999999999788e-01 -1.534998000000000085e+00 1.695450000000000013e-01 3.109569999999999834e-01 1.536362999999999923e+00 -1.705029999999999879e-01 -3.120280000000000276e-01 -1.534564999999999957e+00 1.693639999999999868e-01 3.111610000000000209e-01 1.535830999999999946e+00 -1.719350000000000045e-01 -3.107679999999999887e-01 -1.534499999999999975e+00 -1.708749999999999991e-01 -3.118650000000000033e-01 -1.534718999999999944e+00 1.692510000000000125e-01 3.112240000000000006e-01 1.536294000000000048e+00 -1.706080000000000096e-01 -3.116900000000000226e-01 -1.535512999999999906e+00 1.694660000000000055e-01 3.106019999999999892e-01 1.537098000000000075e+00 1.695119999999999960e-01 3.111709999999999754e-01 1.535705000000000098e+00 -1.713020000000000098e-01 -3.113349999999999729e-01 -1.535066999999999959e+00 -1.701390000000000124e-01 -3.121920000000000250e-01 -1.535727000000000064e+00 -1.706509999999999971e-01 -3.116590000000000193e-01 -1.535508000000000095e+00 1.699450000000000127e-01 3.104540000000000077e-01 1.536799999999999944e+00 1.691390000000000116e-01 3.111920000000000242e-01 1.535959000000000074e+00 1.696699999999999875e-01 3.112960000000000171e-01 1.536688999999999972e+00 1.693780000000000008e-01 3.111240000000000117e-01 1.535684000000000049e+00 -1.705480000000000051e-01 -3.116249999999999853e-01 -1.535606000000000027e+00 1.697259999999999880e-01 3.104839999999999822e-01 1.536359000000000030e+00 1.692700000000000038e-01 3.114259999999999806e-01 1.535695999999999950e+00 -1.708429999999999949e-01 -3.121979999999999755e-01 -1.535803999999999947e+00 1.693240000000000023e-01 3.110029999999999739e-01 1.536820000000000075e+00 1.700079999999999925e-01 3.108969999999999789e-01 1.536356000000000055e+00 -1.718709999999999960e-01 -3.118079999999999741e-01 -1.534033999999999898e+00 -1.708550000000000069e-01 -3.117690000000000183e-01 -1.535319000000000100e+00 1.687259999999999871e-01 3.117320000000000091e-01 1.536688999999999972e+00 -1.705720000000000014e-01 -3.113779999999999881e-01 -1.535544000000000020e+00 -1.720480000000000065e-01 -3.113110000000000044e-01 -1.533897000000000066e+00 -1.709819999999999951e-01 -3.114190000000000014e-01 -1.535247999999999946e+00 -1.711489999999999956e-01 -3.115020000000000011e-01 -1.535225999999999980e+00 1.690300000000000136e-01 3.110169999999999879e-01 1.536734999999999962e+00 1.689539999999999931e-01 3.118219999999999881e-01 1.536329000000000056e+00 -1.718389999999999918e-01 -3.117210000000000258e-01 -1.534378000000000020e+00 -1.710609999999999908e-01 -3.113779999999999881e-01 -1.535322000000000076e+00 1.686140000000000139e-01 3.113750000000000129e-01 1.536418999999999979e+00 -1.708840000000000081e-01 -3.112289999999999779e-01 -1.535835000000000061e+00 1.692760000000000098e-01 3.115600000000000036e-01 1.536122999999999905e+00 1.689519999999999911e-01 3.119169999999999998e-01 1.535700000000000065e+00 1.698540000000000050e-01 3.102489999999999970e-01 1.536821999999999910e+00 -1.719839999999999980e-01 -3.111200000000000077e-01 -1.534446999999999894e+00 -1.714870000000000005e-01 -3.116129999999999733e-01 -1.534845000000000015e+00 1.691690000000000138e-01 3.113279999999999936e-01 1.535814999999999930e+00 1.688320000000000098e-01 3.114330000000000154e-01 1.536027999999999949e+00 1.703230000000000022e-01 3.100430000000000130e-01 1.536599999999999966e+00 1.684879999999999989e-01 3.119950000000000223e-01 1.535709999999999908e+00 1.701100000000000112e-01 3.104680000000000217e-01 1.536195999999999895e+00 -1.716969999999999885e-01 -3.110970000000000124e-01 -1.534815999999999958e+00 1.696660000000000112e-01 3.116900000000000226e-01 1.535379000000000049e+00 1.703000000000000069e-01 3.100780000000000203e-01 1.536894999999999900e+00 7.749999999999999728e-04 -4.730000000000000046e-04 4.459999999999999989e-04 -3.757140000000000146e+00 -1.951910000000000034e+00 4.989097000000000115e+00 3.757162000000000113e+00 1.954887999999999959e+00 -4.988934999999999675e+00 3.756294000000000022e+00 1.953313000000000077e+00 -4.987593000000000387e+00 -3.756600000000000161e+00 -1.952954000000000079e+00 4.988118000000000052e+00 4.040000000000000080e-04 -1.028999999999999967e-03 1.616000000000000032e-03 -3.757197000000000120e+00 -1.952042999999999973e+00 4.988863000000000270e+00 3.757152000000000047e+00 1.953983999999999943e+00 -4.988095000000000390e+00 8.630000000000000518e-04 -7.339999999999999520e-04 1.958000000000000105e-03 3.757899999999999796e+00 1.954903000000000057e+00 -4.989902999999999977e+00 3.757493999999999890e+00 1.953935999999999895e+00 -4.988690000000000069e+00 3.069999999999999812e-04 -3.739999999999999835e-04 1.835999999999999958e-03 3.757066000000000017e+00 1.954466000000000037e+00 -4.988734000000000002e+00 -3.756918000000000202e+00 -1.953136999999999901e+00 4.988976000000000077e+00 -3.756899999999999906e+00 -1.952496000000000009e+00 4.988758999999999943e+00 -3.758153000000000077e+00 -1.953078000000000092e+00 4.989995000000000402e+00 6.790000000000000245e-04 -7.110000000000000434e-04 -2.290000000000000098e-04 -3.757118000000000180e+00 -1.952298000000000089e+00 4.987936000000000369e+00 3.757960000000000189e+00 1.954228000000000076e+00 -4.991022000000000070e+00 3.757017999999999969e+00 1.954375999999999891e+00 -4.989117000000000246e+00 -3.757155000000000022e+00 -1.953011000000000053e+00 4.986664000000000208e+00 8.310000000000000329e-04 -3.280000000000000038e-04 -4.910000000000000085e-04 -3.757362999999999786e+00 -1.952404000000000028e+00 4.987752999999999659e+00 3.756402000000000019e+00 1.954671000000000047e+00 -4.988855000000000040e+00 3.756984999999999797e+00 1.955079999999999929e+00 -4.989287000000000027e+00 1.000999999999999937e-03 1.402999999999999950e-03 -8.009999999999999542e-04 3.330000000000000169e-04 -4.879999999999999898e-04 3.919999999999999873e-04 3.757376999999999967e+00 1.955610999999999988e+00 -4.989263000000000225e+00 -3.756787999999999794e+00 -1.952210999999999919e+00 4.987631999999999621e+00 -1.000000000000000082e-05 -5.000000000000000104e-04 1.013999999999999927e-03 3.756642999999999954e+00 1.956032999999999911e+00 -4.989073000000000313e+00 1.489000000000000089e-03 3.589999999999999984e-04 -2.990000000000000036e-04 3.020000000000000223e-04 -1.425999999999999967e-03 1.477999999999999930e-03 3.757594999999999796e+00 1.955257000000000023e+00 -4.989812999999999832e+00 -7.240000000000000342e-04 -1.358000000000000049e-03 2.487000000000000061e-03 3.757207000000000185e+00 1.954406000000000088e+00 -4.989504000000000161e+00 -3.200000000000000262e-04 -8.400000000000000348e-04 6.480000000000000300e-04 -3.756794999999999884e+00 -1.953270999999999979e+00 4.988127999999999673e+00 1.273000000000000043e-03 6.539999999999999590e-04 -1.479000000000000063e-03 4.270000000000000249e-04 -1.351999999999999903e-03 1.010999999999999963e-03 3.757400000000000073e+00 1.954423999999999939e+00 -4.989430999999999727e+00 -3.757486000000000104e+00 -1.951934999999999976e+00 4.988268999999999842e+00 3.756618000000000013e+00 1.954047000000000089e+00 -4.988515999999999728e+00 -3.756718999999999919e+00 -1.953089000000000075e+00 4.988387999999999600e+00 3.757601000000000191e+00 1.953665999999999903e+00 -4.989783000000000079e+00 1.778000000000000067e-03 -4.970000000000000459e-04 -1.059000000000000045e-03 -3.757401999999999909e+00 -1.953408999999999951e+00 4.988775999999999655e+00 3.756339000000000095e+00 1.953581000000000012e+00 -4.988767000000000174e+00 -3.756702000000000208e+00 -1.953592999999999913e+00 4.986983000000000388e+00 3.756585999999999981e+00 1.953610999999999986e+00 -4.987917999999999630e+00 3.757928999999999853e+00 1.953364000000000100e+00 -4.990021999999999736e+00 1.744000000000000107e-03 -5.270000000000000162e-04 -1.000000000000000021e-03 3.757270000000000110e+00 1.953926000000000052e+00 -4.988799000000000206e+00 3.756546000000000163e+00 1.954267999999999894e+00 -4.988570000000000171e+00 -3.757642999999999844e+00 -1.953758000000000106e+00 4.987794000000000061e+00 -3.757518000000000136e+00 -1.953842999999999996e+00 4.989880999999999567e+00 -3.757874000000000159e+00 -1.954212999999999978e+00 4.989400999999999975e+00 -3.757477000000000178e+00 -1.952981999999999996e+00 4.987313000000000329e+00 -3.757400000000000073e+00 -1.952631999999999923e+00 4.989234999999999864e+00 3.757868999999999904e+00 1.953100999999999976e+00 -4.989924000000000248e+00 8.790000000000000070e-04 -6.409999999999999682e-04 2.390000000000000089e-04 -3.757426999999999850e+00 -1.953109999999999902e+00 4.989310999999999829e+00 3.756876000000000104e+00 1.954239000000000059e+00 -4.988681999999999839e+00 4.500000000000000283e-05 -1.183000000000000024e-03 1.474999999999999966e-03 3.069999999999999812e-04 -1.315999999999999896e-03 6.099999999999999737e-04 -3.757449999999999957e+00 -1.953559000000000045e+00 4.988719999999999821e+00 3.757442999999999866e+00 1.952711000000000086e+00 -4.988662999999999847e+00 9.340000000000000429e-04 -1.083999999999999894e-03 -2.809999999999999998e-04 7.100000000000000462e-05 -1.454999999999999913e-03 1.044000000000000006e-03 -3.757760000000000211e+00 -1.953364000000000100e+00 4.988726999999999911e+00 5.230000000000000274e-04 -1.538000000000000088e-03 8.549999999999999658e-04 3.757975000000000065e+00 1.953832000000000013e+00 -4.990118999999999971e+00 1.098999999999999934e-03 -5.670000000000000127e-04 -3.089999999999999756e-04 -3.757744000000000195e+00 -1.953646999999999911e+00 4.987729999999999997e+00 1.540000000000000028e-04 -1.036999999999999944e-03 1.110000000000000092e-03 -3.757308999999999788e+00 -1.952336999999999989e+00 4.988678000000000168e+00 -3.758159000000000027e+00 -1.952385999999999955e+00 4.988551000000000180e+00 -1.879999999999999890e-04 -1.629000000000000023e-03 1.673999999999999924e-03 -3.757947999999999844e+00 -1.953584999999999905e+00 4.988489999999999647e+00 3.757381000000000082e+00 1.954288999999999943e+00 -4.989442999999999628e+00 6.870000000000000022e-04 4.060000000000000024e-04 -1.087999999999999991e-03 3.757012000000000018e+00 1.954606000000000066e+00 -4.988974999999999937e+00 3.758077000000000112e+00 1.954418999999999906e+00 -4.989359999999999573e+00 -3.756350999999999996e+00 -1.952903999999999973e+00 4.987708999999999726e+00 8.769999999999999584e-04 -1.108999999999999960e-03 9.319999999999999942e-04 -3.757495000000000029e+00 -1.952188000000000034e+00 4.988605999999999874e+00 3.757851000000000052e+00 1.954420999999999964e+00 -4.988641999999999577e+00 3.757696999999999843e+00 1.953289000000000053e+00 -4.988642999999999716e+00 -3.757165000000000088e+00 -1.952892000000000072e+00 4.988114000000000381e+00 3.757918000000000092e+00 1.954117000000000104e+00 -4.989390000000000214e+00 6.399999999999999710e-05 -5.099999999999999960e-05 1.670999999999999959e-03 3.758175000000000043e+00 1.954779999999999962e+00 -4.989912999999999599e+00 -3.756695999999999813e+00 -1.953505999999999965e+00 4.987085000000000434e+00 3.757242999999999888e+00 1.954792000000000085e+00 -4.988785000000000025e+00 -3.757452999999999932e+00 -1.952169000000000043e+00 4.988260999999999612e+00 -3.757753999999999817e+00 -1.953387999999999902e+00 4.988922999999999774e+00 -3.756275000000000031e+00 -1.952595000000000081e+00 4.988032999999999717e+00 3.757356000000000140e+00 1.954358999999999957e+00 -4.989805999999999742e+00 -3.755742999999999832e+00 -1.953597000000000028e+00 4.986498000000000097e+00 9.129999999999999661e-04 -1.219999999999999947e-03 -1.749999999999999982e-04 -3.757411999999999974e+00 -1.952822999999999976e+00 4.988040999999999947e+00 3.758668000000000120e+00 1.953502000000000072e+00 -4.990094000000000030e+00 3.756911999999999807e+00 1.955419000000000018e+00 -4.989042000000000421e+00 1.492000000000000054e-03 1.402000000000000034e-03 -1.111999999999999924e-03 1.583999999999999905e-03 1.180000000000000059e-03 -1.366000000000000027e-03 -3.756920000000000037e+00 -1.952545999999999893e+00 4.987436999999999898e+00 7.619999999999999820e-04 -6.980000000000000527e-04 -3.449999999999999833e-04 3.756946000000000119e+00 1.955872000000000055e+00 -4.988429000000000002e+00 -3.756663000000000086e+00 -1.952371000000000079e+00 4.987747999999999848e+00 1.043000000000000090e-03 7.680000000000000195e-04 -8.399999999999999535e-05 1.709999999999999932e-03 7.669999999999999951e-04 -6.589999999999999721e-04 2.959999999999999849e-04 -1.227000000000000009e-03 1.461000000000000059e-03 -3.756564000000000014e+00 -1.951815999999999995e+00 4.987370000000000303e+00 3.757108999999999810e+00 1.954453999999999914e+00 -4.989320000000000199e+00 -3.757467000000000112e+00 -1.953422999999999909e+00 4.987677999999999834e+00 -3.756280999999999981e+00 -1.953456000000000081e+00 4.987246999999999986e+00 8.589999999999999546e-04 6.809999999999999647e-04 -1.752000000000000085e-03 1.616999999999999948e-03 7.499999999999999343e-05 -2.063000000000000164e-03 -3.757197999999999816e+00 -1.952186999999999895e+00 4.987927000000000000e+00 1.160000000000000007e-04 -9.979999999999999722e-04 7.619999999999999820e-04 3.758100999999999914e+00 1.953891000000000044e+00 -4.989692999999999934e+00 2.128999999999999816e-03 -9.899999999999999404e-05 -1.760000000000000063e-03 -3.756739000000000051e+00 -1.953030000000000044e+00 4.988475000000000215e+00 3.757573999999999970e+00 1.954007999999999967e+00 -4.989664000000000321e+00 2.288000000000000103e-03 -2.149999999999999947e-04 -1.965999999999999866e-03 -3.756403000000000159e+00 -1.953851000000000004e+00 4.986347999999999558e+00 3.757131000000000220e+00 1.953862999999999905e+00 -4.989198000000000022e+00 -3.756801999999999975e+00 -1.953632000000000035e+00 4.986730999999999803e+00 3.758201000000000125e+00 1.953607000000000093e+00 -4.990166999999999575e+00 1.757000000000000098e-03 -5.739999999999999660e-04 -6.070000000000000092e-04 3.758553000000000033e+00 1.953222000000000014e+00 -4.990522000000000347e+00 2.040999999999999846e-03 -3.150000000000000131e-04 -9.979999999999999722e-04 3.757296999999999887e+00 1.953746999999999900e+00 -4.988958000000000226e+00 -3.757026000000000199e+00 -1.953807999999999989e+00 4.988712999999999731e+00 -3.756959000000000160e+00 -1.953114000000000017e+00 4.986850999999999701e+00 -3.756521000000000221e+00 -1.953750000000000098e+00 4.987514000000000003e+00 3.757544000000000217e+00 1.952943000000000096e+00 -4.989232000000000333e+00 2.004000000000000139e-03 -3.420000000000000188e-04 -5.109999999999999525e-04 -3.756645999999999930e+00 -1.952531999999999934e+00 4.988684000000000118e+00 3.758297000000000221e+00 1.953637999999999986e+00 -4.990155999999999814e+00 2.050999999999999872e-03 -5.159999999999999656e-04 -7.230000000000000098e-04 -3.756079000000000168e+00 -1.954094999999999915e+00 4.986754999999999605e+00 3.757632999999999779e+00 1.954166000000000070e+00 -4.988636999999999766e+00 -3.756693999999999978e+00 -1.953754999999999908e+00 4.988001999999999825e+00 1.768999999999999956e-03 -5.680000000000000370e-04 -1.232999999999999938e-03 3.758439999999999781e+00 1.953413999999999984e+00 -4.989389000000000074e+00 1.544999999999999932e-03 -1.280000000000000105e-03 -8.249999999999999955e-04 5.360000000000000181e-04 -1.423000000000000003e-03 7.420000000000000380e-04 -3.757203000000000070e+00 -1.953708999999999918e+00 4.988368000000000357e+00 3.757985999999999827e+00 1.952679999999999971e+00 -4.989840000000000053e+00 9.799999999999999684e-04 -1.067999999999999939e-03 -8.140000000000000534e-04 3.757909999999999862e+00 1.954151999999999889e+00 -4.989656000000000091e+00 6.080000000000000335e-04 1.090000000000000067e-04 -3.959999999999999762e-04 6.719999999999999628e-04 -1.221999999999999996e-03 4.889999999999999599e-04 3.758018999999999998e+00 1.953789999999999916e+00 -4.989371000000000222e+00 1.476000000000000098e-03 -7.100000000000000191e-04 -1.172999999999999998e-03 3.758326999999999973e+00 1.953791000000000055e+00 -4.989310999999999829e+00 -3.757877000000000134e+00 -1.952585000000000015e+00 4.989183999999999841e+00 3.757740000000000080e+00 1.954482000000000053e+00 -4.989559999999999995e+00 1.144999999999999967e-03 -8.399999999999999535e-05 -1.258999999999999920e-03 4.580000000000000195e-04 -1.263000000000000017e-03 1.333999999999999899e-03 -3.756896999999999931e+00 -1.953848999999999947e+00 4.988141999999999854e+00