-4.702363308899999765e+02
-4.702363325000000032e+02
-4.702363356899999758e+02
-4.702363405500000226e+02
-4.702363471799999957e+02
-4.702363557499999729e+02
