-4.702363961600000266e+02
-4.702363968600000135e+02
-4.702363981099999819e+02
-4.702364000200000191e+02
-4.702364026199999785e+02
-4.702364058399999749e+02
