9.342089209593842369e+00 -9.009721514470324148e-17 0.000000000000000000e+00 1.296519583431726907e+00 1.607641303937660027e+01 0.000000000000000000e+00 0.000000000000000000e+00 0.000000000000000000e+00 2.166172089000000156e+01
9.342089209593842369e+00 -9.009721514470324148e-17 0.000000000000000000e+00 1.296519583431726907e+00 1.607641303937660027e+01 0.000000000000000000e+00 0.000000000000000000e+00 0.000000000000000000e+00 2.166172089000000156e+01
9.342089209593842369e+00 -9.009721514470324148e-17 0.000000000000000000e+00 1.296519583431726907e+00 1.607641303937660027e+01 0.000000000000000000e+00 0.000000000000000000e+00 0.000000000000000000e+00 2.166172089000000156e+01
9.342089209593842369e+00 -9.009721514470324148e-17 0.000000000000000000e+00 1.296519583431726907e+00 1.607641303937660027e+01 0.000000000000000000e+00 0.000000000000000000e+00 0.000000000000000000e+00 2.166172089000000156e+01
9.342089209593842369e+00 -9.009721514470324148e-17 0.000000000000000000e+00 1.296519583431726907e+00 1.607641303937660027e+01 0.000000000000000000e+00 0.000000000000000000e+00 0.000000000000000000e+00 2.166172089000000156e+01
