9.332187099481867421e+00 2.066461761355770869e-03 4.879769999999999719e+00 1.763199670770639216e+00 2.681470679588779049e+00 4.879769999999999719e+00 2.982556609978828654e-01 3.570388877304923714e+00 2.312609999999999832e+00 1.639177821056385209e+00 8.909859428503018597e-01 2.312600000000000211e+00 3.104121830829141615e+00 2.067745134157121349e-03 4.879769999999999719e+00 4.877227723209712984e+00 2.681475423652917911e+00 4.879769999999999719e+00 3.412282909573706835e+00 3.570383653731234563e+00 2.312609999999999832e+00 4.753215037270037691e+00 8.909799154133615229e-01 2.312600000000000211e+00 6.218159850906044284e+00 2.071685335045223095e-03 4.879769999999999719e+00 7.991254971785537009e+00 2.681470200079228317e+00 4.879769999999999719e+00 6.526310962012781047e+00 3.570388397795372537e+00 2.312609999999999832e+00 7.867243089709111459e+00 8.909846594775004958e-01 2.312600000000000211e+00 9.764360060302859523e+00 5.360867910960161353e+00 4.879769999999999719e+00 2.195372631591629986e+00 8.040272128787584904e+00 4.879769999999999719e+00 7.304286218188736912e-01 8.929190326503729125e+00 2.312609999999999832e+00 2.071350781877375979e+00 6.249787392049107382e+00 2.312600000000000211e+00 3.536294791650132385e+00 5.360869194332962273e+00 4.879769999999999719e+00 5.309400684030704198e+00 8.040276872851723766e+00 4.879769999999999719e+00 3.844455870394697605e+00 8.929185102930039974e+00 2.312609999999999832e+00 5.185388801954279536e+00 6.249791332249994724e+00 2.312600000000000211e+00 6.650332811727035498e+00 5.360873134533850504e+00 4.879769999999999719e+00 8.423427932606529112e+00 8.040271649278034616e+00 4.879769999999999719e+00 6.958483922833772262e+00 8.929189846994178836e+00 2.312609999999999832e+00 8.299416050530101785e+00 6.249786108676305574e+00 2.312600000000000211e+00 1.019653382498710137e+01 1.071967932779679522e+01 4.879769999999999719e+00 2.627546396275871388e+00 1.339908354562421877e+01 4.879769999999999719e+00 1.162601582639864572e+00 1.428799177570253498e+01 2.312609999999999832e+00 2.503523742698367194e+00 1.160858884124791324e+01 2.312600000000000211e+00 3.968468556334373787e+00 1.071968061116959525e+01 4.879769999999999719e+00 5.741573644851694525e+00 1.339907832205052785e+01 4.879769999999999719e+00 4.276629635078939451e+00 1.428799651976667384e+01 2.312609999999999832e+00 5.617561762775269862e+00 1.160859278144880058e+01 2.312600000000000211e+00 7.082505772548026712e+00 1.071967458373265636e+01 4.879769999999999719e+00 8.855601697290769181e+00 1.339908306611466671e+01 4.879769999999999719e+00 7.390656883654762588e+00 1.428799129619298469e+01 2.312609999999999832e+00 8.731589815214343631e+00 1.160859752551293944e+01 2.312600000000000211e+00 9.332187099481867421e+00 2.066461761355770869e-03 1.210033999999999921e+01 1.763199670770639216e+00 2.681470679588779049e+00 1.210033999999999921e+01 2.982556609978828654e-01 3.570388877304923714e+00 9.533179999999999765e+00 1.639177821056385209e+00 8.909859428503018597e-01 9.533170000000000144e+00 3.104121830829141615e+00 2.067745134157121349e-03 1.210033999999999921e+01 4.877227723209712984e+00 2.681475423652917911e+00 1.210033999999999921e+01 3.412282909573706835e+00 3.570383653731234563e+00 9.533179999999999765e+00 4.753215037270037691e+00 8.909799154133615229e-01 9.533170000000000144e+00 6.218159850906044284e+00 2.071685335045223095e-03 1.210033999999999921e+01 7.991254971785537009e+00 2.681470200079228317e+00 1.210033999999999921e+01 6.526310962012781047e+00 3.570388397795372537e+00 9.533179999999999765e+00 7.867243089709111459e+00 8.909846594775004958e-01 9.533170000000000144e+00 9.764360060302859523e+00 5.360867910960161353e+00 1.210033999999999921e+01 2.195372631591629986e+00 8.040272128787584904e+00 1.210033999999999921e+01 7.304286218188736912e-01 8.929190326503729125e+00 9.533179999999999765e+00 2.071350781877375979e+00 6.249787392049107382e+00 9.533170000000000144e+00 3.536294791650132385e+00 5.360869194332962273e+00 1.210033999999999921e+01 5.309400684030704198e+00 8.040276872851723766e+00 1.210033999999999921e+01 3.844455870394697605e+00 8.929185102930039974e+00 9.533179999999999765e+00 5.185388801954279536e+00 6.249791332249994724e+00 9.533170000000000144e+00 6.650332811727035498e+00 5.360873134533850504e+00 1.210033999999999921e+01 8.423427932606529112e+00 8.040271649278034616e+00 1.210033999999999921e+01 6.958483922833772262e+00 8.929189846994178836e+00 9.533179999999999765e+00 8.299416050530101785e+00 6.249786108676305574e+00 9.533170000000000144e+00 1.019653382498710137e+01 1.071967932779679522e+01 1.210033999999999921e+01 2.627546396275871388e+00 1.339908354562421877e+01 1.210033999999999921e+01 1.162601582639864572e+00 1.428799177570253498e+01 9.533179999999999765e+00 2.503523742698367194e+00 1.160858884124791324e+01 9.533170000000000144e+00 3.968468556334373787e+00 1.071968061116959525e+01 1.210033999999999921e+01 5.741573644851694525e+00 1.339907832205052785e+01 1.210033999999999921e+01 4.276629635078939451e+00 1.428799651976667384e+01 9.533179999999999765e+00 5.617561762775269862e+00 1.160859278144880058e+01 9.533170000000000144e+00 7.082505772548026712e+00 1.071967458373265636e+01 1.210033999999999921e+01 8.855601697290769181e+00 1.339908306611466671e+01 1.210033999999999921e+01 7.390656883654762588e+00 1.428799129619298469e+01 9.533179999999999765e+00 8.731589815214343631e+00 1.160859752551293944e+01 9.533170000000000144e+00 9.332187099481867421e+00 2.066461761355770869e-03 1.932092000000000098e+01 1.763199670770639216e+00 2.681470679588779049e+00 1.932091000000000136e+01 2.982556609978828654e-01 3.570388877304923714e+00 1.675375000000000014e+01 1.639177821056385209e+00 8.909859428503018597e-01 1.675375000000000014e+01 3.104121830829141615e+00 2.067745134157121349e-03 1.932092000000000098e+01 4.877227723209712984e+00 2.681475423652917911e+00 1.932091000000000136e+01 3.412282909573706835e+00 3.570383653731234563e+00 1.675375000000000014e+01 4.753215037270037691e+00 8.909799154133615229e-01 1.675375000000000014e+01 6.218159850906044284e+00 2.071685335045223095e-03 1.932092000000000098e+01 7.991254971785537009e+00 2.681470200079228317e+00 1.932091000000000136e+01 6.526310962012781047e+00 3.570388397795372537e+00 1.675375000000000014e+01 7.867243089709111459e+00 8.909846594775004958e-01 1.675375000000000014e+01 9.764360060302859523e+00 5.360867910960161353e+00 1.932092000000000098e+01 2.195372631591629986e+00 8.040272128787584904e+00 1.932091000000000136e+01 7.304286218188736912e-01 8.929190326503729125e+00 1.675375000000000014e+01 2.071350781877375979e+00 6.249787392049107382e+00 1.675375000000000014e+01 3.536294791650132385e+00 5.360869194332962273e+00 1.932092000000000098e+01 5.309400684030704198e+00 8.040276872851723766e+00 1.932091000000000136e+01 3.844455870394697605e+00 8.929185102930039974e+00 1.675375000000000014e+01 5.185388801954279536e+00 6.249791332249994724e+00 1.675375000000000014e+01 6.650332811727035498e+00 5.360873134533850504e+00 1.932092000000000098e+01 8.423427932606529112e+00 8.040271649278034616e+00 1.932091000000000136e+01 6.958483922833772262e+00 8.929189846994178836e+00 1.675375000000000014e+01 8.299416050530101785e+00 6.249786108676305574e+00 1.675375000000000014e+01 1.019653382498710137e+01 1.071967932779679522e+01 1.932092000000000098e+01 2.627546396275871388e+00 1.339908354562421877e+01 1.932091000000000136e+01 1.162601582639864572e+00 1.428799177570253498e+01 1.675375000000000014e+01 2.503523742698367194e+00 1.160858884124791324e+01 1.675375000000000014e+01 3.968468556334373787e+00 1.071968061116959525e+01 1.932092000000000098e+01 5.741573644851694525e+00 1.339907832205052785e+01 1.932091000000000136e+01 4.276629635078939451e+00 1.428799651976667384e+01 1.675375000000000014e+01 5.617561762775269862e+00 1.160859278144880058e+01 1.675375000000000014e+01 7.082505772548026712e+00 1.071967458373265636e+01 1.932092000000000098e+01 8.855601697290769181e+00 1.339908306611466671e+01 1.932091000000000136e+01 7.390656883654762588e+00 1.428799129619298469e+01 1.675375000000000014e+01 8.731589815214343631e+00 1.160859752551293944e+01 1.675375000000000014e+01 1.441834815369271716e-01 1.786210183867478207e+00 3.596119999999999983e+00 9.591621546672270071e+00 3.576739899547107804e+00 5.928950000000000387e+00 1.811947041463709107e+00 2.675121510311431194e+00 1.263370000000000104e+00 4.710149137673785291e-01 5.354525248629304457e+00 1.263370000000000104e+00 1.917289373917499429e+00 4.465617862386238812e+00 3.596119999999999983e+00 1.590460353276800021e+00 8.973327005378981536e-01 5.928950000000000387e+00 3.258210730112751197e+00 1.786204960293788613e+00 3.596119999999999983e+00 3.363566245657372278e+00 3.576740379056658981e+00 5.928950000000000387e+00 4.925975093902783541e+00 2.675126254375569612e+00 1.263370000000000104e+00 3.585052129981030511e+00 5.354519221192363787e+00 1.263370000000000104e+00 5.031316622493323010e+00 4.465612638812549662e+00 3.596119999999999983e+00 4.704498373353701801e+00 8.973366407387861621e-01 5.928950000000000387e+00 6.372238782551825409e+00 1.786209704357927697e+00 3.596119999999999983e+00 6.477593494233196303e+00 3.576735155482969386e+00 5.928950000000000387e+00 8.040012310116436467e+00 2.675120226938629386e+00 1.263370000000000104e+00 6.699080182420105167e+00 5.354523965256501761e+00 1.263370000000000104e+00 8.145344674932397666e+00 4.465617382876688524e+00 3.596119999999999983e+00 7.818525621929526714e+00 8.973314171650964566e-01 5.928950000000000387e+00 5.763564423579179419e-01 7.145011633066283174e+00 3.596119999999999983e+00 1.002379450749326040e+01 8.935541348745914547e+00 5.928950000000000387e+00 2.244120806147950731e+00 8.033932927148065062e+00 1.263370000000000104e+00 9.031878745883693549e-01 1.071332669782810854e+01 1.263370000000000104e+00 2.349462334738490199e+00 9.824419311585044667e+00 3.596119999999999983e+00 2.022633314097790791e+00 6.256134149736703343e+00 5.928950000000000387e+00 3.690384494796993042e+00 7.145016377130422036e+00 3.596119999999999983e+00 3.795739206478363048e+00 8.935541828255464836e+00 5.928950000000000387e+00 5.358148054723773868e+00 8.033927703574375911e+00 1.263370000000000104e+00 4.017225894665272357e+00 1.071333063802899765e+01 1.263370000000000104e+00 5.463489583314314224e+00 9.824414088011353741e+00 3.596119999999999983e+00 5.136671334174693015e+00 6.256138089937591573e+00 5.928950000000000387e+00 6.804411743372815735e+00 7.145011153556732886e+00 3.596119999999999983e+00 6.909766455054186629e+00 8.935536604681775685e+00 5.928950000000000387e+00 8.472186074800676536e+00 8.033931643775263254e+00 1.263370000000000104e+00 7.131253143241095493e+00 1.071332541445530850e+01 1.263370000000000104e+00 8.577517635753387992e+00 9.824418832075492602e+00 3.596119999999999983e+00 8.250699386613767672e+00 6.256142834001730435e+00 5.928950000000000387e+00 1.008529403178908934e+00 1.250381308226508992e+01 3.596119999999999983e+00 1.045596746831425250e+01 1.429434279794471863e+01 5.928950000000000387e+00 2.676293766968941501e+00 1.339273437634686914e+01 1.263370000000000104e+00 1.335360835409360014e+00 1.607212814702691261e+01 1.263370000000000104e+00 2.781635295559480969e+00 1.518322076078384875e+01 3.596119999999999983e+00 2.454807078782032193e+00 1.161494556657333632e+01 5.928950000000000387e+00 4.122557455617983813e+00 1.250381782632922878e+01 3.596119999999999983e+00 4.227912167299353818e+00 1.429434327745426891e+01 5.928950000000000387e+00 5.790321015544765082e+00 1.339272915277317999e+01 1.263370000000000104e+00 4.449398855486262683e+00 1.607213208722780351e+01 1.263370000000000104e+00 5.895663347998555182e+00 1.518322550484798761e+01 3.596119999999999983e+00 5.568844294995684230e+00 1.161493953913639743e+01 5.928950000000000387e+00 7.236584704193806949e+00 1.250381260275553963e+01 3.596119999999999983e+00 7.341940219738428475e+00 1.429434802151840778e+01 5.928950000000000387e+00 8.904359035621668639e+00 1.339273309297406733e+01 1.263370000000000104e+00 7.563426104062086708e+00 1.607212686365411258e+01 1.263370000000000104e+00 9.009690596574378318e+00 1.518322028127429846e+01 3.596119999999999983e+00 8.682872347434759774e+00 1.161494428320053451e+01 5.928950000000000387e+00 1.441834815369271716e-01 1.786210183867478207e+00 1.081668999999999947e+01 9.591621546672270071e+00 3.576739899547107804e+00 1.314953000000000038e+01 1.811947041463709107e+00 2.675121510311431194e+00 8.483940000000000481e+00 4.710149137673785291e-01 5.354525248629304457e+00 8.483940000000000481e+00 1.917289373917499429e+00 4.465617862386238812e+00 1.081670000000000087e+01 1.590460353276800021e+00 8.973327005378981536e-01 1.314953000000000038e+01 3.258210730112751197e+00 1.786204960293788613e+00 1.081668999999999947e+01 3.363566245657372278e+00 3.576740379056658981e+00 1.314953000000000038e+01 4.925975093902783541e+00 2.675126254375569612e+00 8.483940000000000481e+00 3.585052129981030511e+00 5.354519221192363787e+00 8.483940000000000481e+00 5.031316622493323010e+00 4.465612638812549662e+00 1.081670000000000087e+01 4.704498373353701801e+00 8.973366407387861621e-01 1.314953000000000038e+01 6.372238782551825409e+00 1.786209704357927697e+00 1.081668999999999947e+01 6.477593494233196303e+00 3.576735155482969386e+00 1.314953000000000038e+01 8.040012310116436467e+00 2.675120226938629386e+00 8.483940000000000481e+00 6.699080182420105167e+00 5.354523965256501761e+00 8.483940000000000481e+00 8.145344674932397666e+00 4.465617382876688524e+00 1.081670000000000087e+01 7.818525621929526714e+00 8.973314171650964566e-01 1.314953000000000038e+01 5.763564423579179419e-01 7.145011633066283174e+00 1.081668999999999947e+01 1.002379450749326040e+01 8.935541348745914547e+00 1.314953000000000038e+01 2.244120806147950731e+00 8.033932927148065062e+00 8.483940000000000481e+00 9.031878745883693549e-01 1.071332669782810854e+01 8.483940000000000481e+00 2.349462334738490199e+00 9.824419311585044667e+00 1.081670000000000087e+01 2.022633314097790791e+00 6.256134149736703343e+00 1.314953000000000038e+01 3.690384494796993042e+00 7.145016377130422036e+00 1.081668999999999947e+01 3.795739206478363048e+00 8.935541828255464836e+00 1.314953000000000038e+01 5.358148054723773868e+00 8.033927703574375911e+00 8.483940000000000481e+00 4.017225894665272357e+00 1.071333063802899765e+01 8.483940000000000481e+00 5.463489583314314224e+00 9.824414088011353741e+00 1.081670000000000087e+01 5.136671334174693015e+00 6.256138089937591573e+00 1.314953000000000038e+01 6.804411743372815735e+00 7.145011153556732886e+00 1.081668999999999947e+01 6.909766455054186629e+00 8.935536604681775685e+00 1.314953000000000038e+01 8.472186074800676536e+00 8.033931643775263254e+00 8.483940000000000481e+00 7.131253143241095493e+00 1.071332541445530850e+01 8.483940000000000481e+00 8.577517635753387992e+00 9.824418832075492602e+00 1.081670000000000087e+01 8.250699386613767672e+00 6.256142834001730435e+00 1.314953000000000038e+01 1.008529403178908934e+00 1.250381308226508992e+01 1.081668999999999947e+01 1.045596746831425250e+01 1.429434279794471863e+01 1.314953000000000038e+01 2.676293766968941501e+00 1.339273437634686914e+01 8.483940000000000481e+00 1.335360835409360014e+00 1.607212814702691261e+01 8.483940000000000481e+00 2.781635295559480969e+00 1.518322076078384875e+01 1.081670000000000087e+01 2.454807078782032193e+00 1.161494556657333632e+01 1.314953000000000038e+01 4.122557455617983813e+00 1.250381782632922878e+01 1.081668999999999947e+01 4.227912167299353818e+00 1.429434327745426891e+01 1.314953000000000038e+01 5.790321015544765082e+00 1.339272915277317999e+01 8.483940000000000481e+00 4.449398855486262683e+00 1.607213208722780351e+01 8.483940000000000481e+00 5.895663347998555182e+00 1.518322550484798761e+01 1.081670000000000087e+01 5.568844294995684230e+00 1.161493953913639743e+01 1.314953000000000038e+01 7.236584704193806949e+00 1.250381260275553963e+01 1.081668999999999947e+01 7.341940219738428475e+00 1.429434802151840778e+01 1.314953000000000038e+01 8.904359035621668639e+00 1.339273309297406733e+01 8.483940000000000481e+00 7.563426104062086708e+00 1.607212686365411258e+01 8.483940000000000481e+00 9.009690596574378318e+00 1.518322028127429846e+01 1.081670000000000087e+01 8.682872347434759774e+00 1.161494428320053451e+01 1.314953000000000038e+01 1.441834815369271716e-01 1.786210183867478207e+00 1.803725999999999985e+01 9.591621546672270071e+00 3.576739899547107804e+00 2.037010000000000076e+01 1.811947041463709107e+00 2.675121510311431194e+00 1.570451000000000086e+01 4.710149137673785291e-01 5.354525248629304457e+00 1.570452000000000048e+01 1.917289373917499429e+00 4.465617862386238812e+00 1.803726999999999947e+01 1.590460353276800021e+00 8.973327005378981536e-01 2.037010000000000076e+01 3.258210730112751197e+00 1.786204960293788613e+00 1.803725999999999985e+01 3.363566245657372278e+00 3.576740379056658981e+00 2.037010000000000076e+01 4.925975093902783541e+00 2.675126254375569612e+00 1.570451000000000086e+01 3.585052129981030511e+00 5.354519221192363787e+00 1.570452000000000048e+01 5.031316622493323010e+00 4.465612638812549662e+00 1.803726999999999947e+01 4.704498373353701801e+00 8.973366407387861621e-01 2.037010000000000076e+01 6.372238782551825409e+00 1.786209704357927697e+00 1.803725999999999985e+01 6.477593494233196303e+00 3.576735155482969386e+00 2.037010000000000076e+01 8.040012310116436467e+00 2.675120226938629386e+00 1.570451000000000086e+01 6.699080182420105167e+00 5.354523965256501761e+00 1.570452000000000048e+01 8.145344674932397666e+00 4.465617382876688524e+00 1.803726999999999947e+01 7.818525621929526714e+00 8.973314171650964566e-01 2.037010000000000076e+01 5.763564423579179419e-01 7.145011633066283174e+00 1.803725999999999985e+01 1.002379450749326040e+01 8.935541348745914547e+00 2.037010000000000076e+01 2.244120806147950731e+00 8.033932927148065062e+00 1.570451000000000086e+01 9.031878745883693549e-01 1.071332669782810854e+01 1.570452000000000048e+01 2.349462334738490199e+00 9.824419311585044667e+00 1.803726999999999947e+01 2.022633314097790791e+00 6.256134149736703343e+00 2.037010000000000076e+01 3.690384494796993042e+00 7.145016377130422036e+00 1.803725999999999985e+01 3.795739206478363048e+00 8.935541828255464836e+00 2.037010000000000076e+01 5.358148054723773868e+00 8.033927703574375911e+00 1.570451000000000086e+01 4.017225894665272357e+00 1.071333063802899765e+01 1.570452000000000048e+01 5.463489583314314224e+00 9.824414088011353741e+00 1.803726999999999947e+01 5.136671334174693015e+00 6.256138089937591573e+00 2.037010000000000076e+01 6.804411743372815735e+00 7.145011153556732886e+00 1.803725999999999985e+01 6.909766455054186629e+00 8.935536604681775685e+00 2.037010000000000076e+01 8.472186074800676536e+00 8.033931643775263254e+00 1.570451000000000086e+01 7.131253143241095493e+00 1.071332541445530850e+01 1.570452000000000048e+01 8.577517635753387992e+00 9.824418832075492602e+00 1.803726999999999947e+01 8.250699386613767672e+00 6.256142834001730435e+00 2.037010000000000076e+01 1.008529403178908934e+00 1.250381308226508992e+01 1.803725999999999985e+01 1.045596746831425250e+01 1.429434279794471863e+01 2.037010000000000076e+01 2.676293766968941501e+00 1.339273437634686914e+01 1.570451000000000086e+01 1.335360835409360014e+00 1.607212814702691261e+01 1.570452000000000048e+01 2.781635295559480969e+00 1.518322076078384875e+01 1.803726999999999947e+01 2.454807078782032193e+00 1.161494556657333632e+01 2.037010000000000076e+01 4.122557455617983813e+00 1.250381782632922878e+01 1.803725999999999985e+01 4.227912167299353818e+00 1.429434327745426891e+01 2.037010000000000076e+01 5.790321015544765082e+00 1.339272915277317999e+01 1.570451000000000086e+01 4.449398855486262683e+00 1.607213208722780351e+01 1.570452000000000048e+01 5.895663347998555182e+00 1.518322550484798761e+01 1.803726999999999947e+01 5.568844294995684230e+00 1.161493953913639743e+01 2.037010000000000076e+01 7.236584704193806949e+00 1.250381260275553963e+01 1.803725999999999985e+01 7.341940219738428475e+00 1.429434802151840778e+01 2.037010000000000076e+01 8.904359035621668639e+00 1.339273309297406733e+01 1.570451000000000086e+01 7.563426104062086708e+00 1.607212686365411258e+01 1.570452000000000048e+01 9.009690596574378318e+00 1.518322028127429846e+01 1.803726999999999947e+01 8.682872347434759774e+00 1.161494428320053451e+01 2.037010000000000076e+01