-2.817433647480000218e+03
-2.817395623339999929e+03
-2.817281752599999891e+03
-2.817093109699999786e+03
-2.816831121860000167e+03
