-1.002359363892984948e-03 -3.124351222510856241e-04 3.648999999999999900e-03 -1.031508404690020851e-03 -1.121710930255138483e-03 3.274000000000000000e-03 1.235539165708933029e-03 9.397206872253444565e-04 -4.599999999999999922e-03 1.269909986635182897e-03 2.587539871078896976e-04 -3.938999999999999793e-03 -9.894672893604151368e-04 -1.035812474961444194e-03 4.117000000000000000e-03 -1.002054881833759929e-03 -7.689369374617981969e-04 4.093000000000000284e-03 2.383666534668870806e-03 9.324032665642574807e-04 -4.034000000000000259e-03 1.579102457881727739e-03 1.530013211548150948e-03 -4.245999999999999774e-03 -1.218899995860248065e-03 -1.106598301142689865e-03 3.582999999999999814e-03 -7.877514679674047903e-04 -1.159427714312194230e-03 4.080000000000000293e-03 1.248528023607590976e-03 3.668225378388340085e-04 -4.017999999999999870e-03 1.785849690431862017e-03 1.108027925272834623e-03 -4.395999999999999734e-03 -1.033839341636933742e-03 -1.026214507636542513e-03 3.481000000000000153e-03 -1.233112244835953561e-03 -1.257945623481251766e-03 3.155999999999999951e-03 1.514553704493595918e-03 1.413826041705529626e-03 -4.402999999999999796e-03 1.427851252709235862e-03 1.383698233046738637e-03 -4.671999999999999938e-03 -1.974898723665915816e-04 -9.311378793243389957e-04 3.170000000000000075e-03 -1.057165507867097003e-03 -4.073365794721888790e-04 3.204999999999999950e-03 1.782328689449959921e-03 1.027048899889187062e-03 -4.578999999999999737e-03 1.709629322308128807e-03 1.071035284341393008e-03 -4.250000000000000305e-03 -9.300637937365355528e-04 -1.232223331860098602e-03 3.671999999999999917e-03 -1.025785111529312022e-03 -1.150263406774638389e-03 3.691999999999999969e-03 1.249492259788374674e-03 1.921798447520985987e-04 -4.194999999999999944e-03 1.852020169042275415e-03 2.740096594294126847e-04 -4.782999999999999925e-03 -1.020253519740729016e-03 -6.089562836991290916e-04 3.782999999999999904e-03 -9.972487655708270598e-04 -1.169619980834570678e-03 3.857000000000000185e-03 1.890509754387996151e-03 1.037386074980688709e-03 -4.239999999999999845e-03 1.257563153417025782e-03 3.420159574754170779e-04 -4.024999999999999932e-03 -8.250815182801187701e-04 -9.878716962199972102e-04 3.792999999999999931e-03 -1.065687391004141015e-03 -9.484025435724993940e-04 3.638000000000000175e-03 1.854495748078305957e-03 1.554268971558159587e-04 -4.738000000000000024e-03 1.209301495575331722e-03 8.134211042253981045e-04 -4.636999999999999629e-03 -1.024675433819388897e-03 -9.747847225552149029e-04 2.964000000000000055e-03 -1.878919050416897110e-04 -8.867658270478201736e-04 3.344999999999999883e-03 1.399009358771496989e-03 1.361946333035837569e-03 -4.609000000000000249e-03 2.278395108274222387e-03 7.964255963943502655e-04 -3.967000000000000040e-03 -1.089801156683948419e-03 -2.522110998555148224e-04 3.543000000000000142e-03 -1.085896486477787347e-03 -1.186548701341498709e-03 3.232000000000000064e-03 1.230185409811522567e-03 8.608959620574700147e-04 -4.764000000000000005e-03 1.179172221276501061e-03 2.159094082476325810e-04 -4.133999999999999654e-03 -1.064723154823357318e-03 -1.123045236659234777e-03 4.057999999999999975e-03 -1.055912253988085117e-03 -7.525545241893120789e-04 4.139000000000000318e-03 2.306995976476766252e-03 8.773884912169831012e-04 -4.160999999999999768e-03 1.469345661084389210e-03 1.425497922921138347e-03 -4.440999999999999635e-03 -1.218498197474920681e-03 -1.163815768388781324e-03 3.507000000000000135e-03 -8.481683908951338086e-04 -1.236821482949887908e-03 4.126000000000000327e-03 1.247933191450101764e-03 3.718867430780019995e-04 -4.231999999999999651e-03 1.805222128572802351e-03 1.037241566131574507e-03 -4.582000000000000135e-03 -1.032906833618165050e-03 -1.002211790523787737e-03 3.683000000000000076e-03 -1.328110085703134010e-03 -1.167014824350408103e-03 3.670000000000000085e-03 1.442271999818099800e-03 1.301272253811899034e-03 -4.298999999999999870e-03 1.326888293506129799e-03 1.189184786547654513e-03 -4.715999999999999706e-03 -2.227467760383836581e-04 -1.020396429709799447e-03 3.462999999999999932e-03 -9.968610991464600668e-04 -3.188980228984050909e-04 3.680999999999999810e-03 1.860751349752499647e-03 9.545100389174813191e-04 -4.511000000000000253e-03 1.831491393628414781e-03 9.026944527718373844e-04 -4.355999999999999629e-03 -9.925223694329421593e-04 -1.260293357189197494e-03 3.972999999999999969e-03 -9.683906078320699039e-04 -1.060586927442835501e-03 4.074999999999999629e-03 1.268237604649796344e-03 7.629795640872378854e-05 -4.061000000000000373e-03 1.881360111771415364e-03 1.402181508772972873e-04 -4.862000000000000002e-03 -1.071072342103552471e-03 -5.797767139001106310e-04 4.244000000000000376e-03 -9.486483659478244131e-04 -1.114347915951083116e-03 4.019000000000000003e-03 1.826122439850014819e-03 1.234198863504674167e-03 -4.256000000000000234e-03 1.173369074750740164e-03 4.922702656250849173e-04 -3.935000000000000130e-03 -7.468033668266931381e-04 -9.751229313765088277e-04 4.283000000000000348e-03 -1.096329778735359020e-03 -9.178404089263442374e-04 3.778000000000000108e-03 1.823419700559742330e-03 3.796506230873594712e-04 -4.776999999999999996e-03 1.251133713051767998e-03 9.464890026119140596e-04 -4.459000000000000290e-03 -1.014868435401314111e-03 -9.153808272113246472e-04 3.344999999999999883e-03 -2.524082640677885502e-04 -8.905919762889655082e-04 3.431000000000000022e-03 1.330152537911833376e-03 1.490898798002972779e-03 -4.551000000000000358e-03 2.245277008266969958e-03 8.833692071539091034e-04 -3.808000000000000187e-03 -9.741282994337464559e-04 -2.484975980614650189e-04 3.550000000000000204e-03 -1.044257036293505352e-03 -9.812314926415197525e-04 3.145999999999999925e-03 1.273769995878400911e-03 9.908127964453924789e-04 -4.656999999999999681e-03 1.294137732162121621e-03 2.357319032169405404e-04 -4.155999999999999972e-03 -1.014723926552199909e-03 -1.000668453026518556e-03 4.028999999999999596e-03 -1.063419910381258136e-03 -6.466081457921150476e-04 3.991999999999999889e-03 2.273894007030528765e-03 9.894119691971831661e-04 -3.982000000000000296e-03 1.506033020516584246e-03 1.432571653046958195e-03 -4.432000000000000176e-03 -1.334653106195512551e-03 -1.049107280559366832e-03 3.495999999999999976e-03 -7.793109038354521919e-04 -1.054767517116056647e-03 3.971999999999999836e-03 1.229252235592735547e-03 5.258868141437489851e-04 -4.095999999999999815e-03 1.778599057094895283e-03 1.117641889918747581e-03 -4.612999999999999913e-03 -9.396610948614193392e-04 -9.655889533356513867e-04 3.495999999999999976e-03 -1.271359072326432504e-03 -1.271916313761747809e-03 3.419999999999999863e-03 1.484940341667227845e-03 1.494467524467901157e-03 -4.564999999999999614e-03 1.294526064786506725e-03 1.397460291954072571e-03 -4.663999999999999743e-03 -2.219106516656921334e-04 -9.602690574403132794e-04 3.263999999999999974e-03 -9.787427143245538280e-04 -4.176741542837013603e-04 3.429999999999999889e-03 1.825607860777588021e-03 1.178058546366469268e-03 -4.780000000000000394e-03 1.870027905017140240e-03 1.057096322222911972e-03 -4.307000000000000065e-03 -1.016605206390755901e-03 -1.135955040632862650e-03 3.710000000000000190e-03 -1.022039215373229211e-03 -1.153575243423364148e-03 3.808999999999999886e-03 1.294845211766706581e-03 2.818241962018756190e-04 -4.312999999999999994e-03 1.788388192831908341e-03 3.433491979594844798e-04 -4.854999999999999941e-03 -1.018485420309283001e-03 -7.736313389576609774e-04 3.932999999999999864e-03 -9.983903046827686395e-04 -1.208654541014697213e-03 3.932999999999999864e-03 1.901184338860770163e-03 8.338693600741887762e-04 -4.654000000000000151e-03 1.271871386318797854e-03 2.706347661766676945e-04 -4.426000000000000247e-03 -7.941822407326984716e-04 -1.176967530777629431e-03 3.980000000000000031e-03 -1.101281603007438648e-03 -9.916813151801169308e-04 3.681999999999999943e-03 1.893063854389042538e-03 4.898207024720697674e-05 -5.152000000000000329e-03 1.272370767510234936e-03 7.371042192155838725e-04 -5.000000000000000104e-03 -1.021058582151423673e-03 -1.178735496969071780e-03 3.075000000000000042e-03 -1.868631466168472197e-04 -9.610890512519902141e-04 3.403000000000000209e-03 1.393655336394078979e-03 1.158719035547576713e-03 -4.988000000000000246e-03 2.300388034020318245e-03 7.083727076448792992e-04 -4.335999999999999577e-03 -3.194283413324137413e-05 8.603520531430933248e-04 9.460000000000000093e-04 7.538976153699352041e-03 -7.407001252460574010e-03 -3.726000000000000145e-03 -8.263927639388969626e-03 8.046346498314812384e-03 3.379000000000000059e-03 -7.107875484529539364e-03 7.527737382269918467e-03 3.338999999999999954e-03 -3.288992542486741531e-04 3.254923663539069888e-04 8.880000000000000089e-04 7.596545828487693934e-03 -8.098868098425001175e-03 -3.851999999999999955e-03 -1.984843710693505860e-04 1.263643717240122604e-04 6.059999999999999849e-04 7.425715152681145771e-03 -7.256409268449627234e-03 -3.710999999999999889e-03 -7.977695661069397065e-03 8.025269150586449365e-03 3.311000000000000141e-03 -8.300197869314844545e-03 7.633927451202383169e-03 3.164999999999999845e-03 -2.590937948092270136e-04 2.456224857201681072e-04 1.100999999999999982e-03 7.824017535023925288e-03 -7.853359192831954258e-03 -3.652999999999999997e-03 -4.657442439932733174e-04 8.180869753193325536e-04 7.190000000000000210e-04 7.555085280114615109e-03 -7.344092619935799725e-03 -3.893999999999999892e-03 -7.673344898207904233e-03 8.092019529953370024e-03 3.346000000000000016e-03 -7.960767207042475715e-03 7.812218857359102230e-03 3.209000000000000047e-03 7.044881651998414042e-05 5.250680194921047023e-05 8.710000000000000294e-04 8.011682812771387524e-03 -7.690919223834272352e-03 -3.833000000000000036e-03 -1.445194231086451150e-05 5.298765340751026990e-04 1.286000000000000034e-03 7.751028217503839676e-03 -8.074206559870712729e-03 -3.101000000000000024e-03 -7.684183053370883913e-03 6.987315707930171101e-03 3.605000000000000131e-03 -7.972342971092012676e-03 7.606483586472778148e-03 3.709000000000000057e-03 -4.280930481003053642e-04 4.639141538778372340e-04 1.034999999999999896e-03 7.727170941920224329e-03 -7.723152674545785169e-03 -3.752000000000000127e-03 -1.940620572706798703e-04 6.787966690606778023e-04 8.440000000000000236e-04 7.920028136994935325e-03 -7.981491797227416307e-03 -3.461000000000000101e-03 -8.417655356277517487e-03 7.583205278965643968e-03 3.589000000000000176e-03 -7.609022505633991282e-03 7.608283414066238301e-03 3.628000000000000148e-03 -9.510942239424723793e-05 5.373845901882866056e-04 1.167000000000000069e-03 7.414170983553618199e-03 -7.722991235695635115e-03 -3.396000000000000147e-03 -3.679184833078074680e-04 -2.149394427466936062e-05 1.054999999999999948e-03 7.524698183319555519e-03 -8.218479619123440771e-03 -3.258000000000000045e-03 -7.953565498348566520e-03 7.478560146410492653e-03 3.732000000000000074e-03 -8.440821949017580927e-03 7.644265159253899045e-03 3.851999999999999955e-03 -1.332775956797068459e-04 -2.842060563919013034e-04 8.180000000000000422e-04 7.690693013301213611e-03 -7.528590703123653853e-03 -3.261000000000000010e-03 -2.308952579520250873e-04 1.349977031481195181e-04 1.722999999999999922e-03 7.579568316577712031e-03 -8.272063837660544733e-03 -3.668999999999999952e-03 -7.855302613635659417e-03 8.062551075696125849e-03 3.719000000000000083e-03 -8.192176111386902104e-03 8.326485246490369571e-03 3.706000000000000093e-03 -3.691880009878378529e-04 2.364428470616192354e-04 1.286000000000000034e-03 7.559392148426113262e-03 -8.149043830187295556e-03 -3.720000000000000216e-03 1.361545733810543175e-04 -7.819803160836662573e-05 1.536999999999999955e-03 7.813197375782008833e-03 -8.062165141391805859e-03 -3.627000000000000016e-03 -7.270427967734312269e-03 7.726447447953471194e-03 3.765999999999999816e-03 -7.829193455030162771e-03 8.237016865571714780e-03 3.616999999999999989e-03 -1.932284729786349571e-05 7.058375362449233149e-04 1.350999999999999987e-03 7.576256746408994470e-03 -8.151407161496241130e-03 -3.585000000000000079e-03 -3.088197362231601259e-04 1.141944417170023015e-04 1.479000000000000063e-03 7.795174575166157957e-03 -8.372721382124401202e-03 -3.967000000000000040e-03 -8.411223784072201920e-03 7.973952812392237979e-03 3.782000000000000205e-03 -7.667252467503907383e-03 7.769485993265915283e-03 3.689000000000000005e-03 -1.999619871625285788e-04 8.046783231142819355e-04 8.670000000000000406e-04 7.329702552110077714e-03 -8.061295956457064163e-03 -3.419999999999999863e-03 -4.424287454839769717e-05 2.724381912502260605e-04 1.490999999999999921e-03 7.466307182319500794e-03 -8.183673139809791164e-03 -4.878999999999999657e-03 -8.577635876800182926e-03 7.627207927218868089e-03 4.121999999999999796e-03 -7.532528717413031032e-03 7.698426080787424026e-03 3.720000000000000216e-03 -3.219545686109718391e-04 8.816606915658102453e-05 1.142000000000000003e-03 7.437785368041987220e-03 -8.885652132451536678e-03 -5.072000000000000119e-03 -1.161079826775876359e-04 -4.942660582707868915e-04 1.152999999999999945e-03 7.406598005476363634e-03 -8.090572043142162453e-03 -4.889000000000000117e-03 -8.183496120399797943e-03 7.625519014952456681e-03 4.009999999999999676e-03 -8.592136610514103032e-03 7.895241001151466834e-03 3.569000000000000124e-03 -1.288719454020651931e-04 -5.658770916650061247e-06 1.392999999999999924e-03 7.833018804831285570e-03 -8.674740941558973378e-03 -4.772000000000000200e-03 -3.602492548244804046e-04 2.477609218549338323e-04 1.332000000000000068e-03 7.485695884261459737e-03 -8.167178345570215436e-03 -5.015000000000000360e-03 -7.813584109526349950e-03 7.646852186576993428e-03 4.087000000000000355e-03 -8.037437232274565607e-03 8.006009226652600896e-03 3.602999999999999866e-03 1.487746934564357837e-04 -1.705112623463434689e-04 1.198000000000000063e-03 7.847520471225230901e-03 -8.507365012370218804e-03 -4.943000000000000345e-03 -9.631428459021524442e-05 9.578421365673338121e-04 1.203999999999999992e-03 7.798134470752638228e-03 -7.552304269298176775e-03 -4.265999999999999827e-03 -7.942440190847405851e-03 7.541870710560597338e-03 3.710999999999999889e-03 -8.250842397844234538e-03 7.437323693771570599e-03 3.768000000000000082e-03 -4.635894108174858064e-04 1.068724874875613857e-03 9.510000000000000224e-04 7.756462626206323333e-03 -7.869982498599631393e-03 -4.812000000000000305e-03 -1.967621317608801582e-04 1.068274151847227850e-03 7.150000000000000322e-04 7.834162742263294649e-03 -7.516083230495368243e-03 -4.362999999999999691e-03 -8.307994143686237357e-03 8.097052939710547639e-03 3.697999999999999898e-03 -7.711142734790043737e-03 7.536259398646966146e-03 3.680999999999999810e-03 1.935883913999390744e-05 1.085958210681769922e-03 1.185000000000000072e-03 7.457722775538453731e-03 -7.892039280389768693e-03 -4.387000000000000274e-03 -2.901217171247539033e-04 4.206832409932492658e-04 1.072999999999999952e-03 7.540936887182949321e-03 -7.706126904192762105e-03 -4.569000000000000145e-03 -8.052710101077132157e-03 8.065429252557506853e-03 3.661000000000000192e-03 -8.357206705187775198e-03 7.461953637403847921e-03 3.827999999999999806e-03 -1.229710828301912588e-04 3.038685781510985003e-04 7.720000000000000083e-04 7.683281207594103504e-03 -7.707574124523961477e-03 -4.537000000000000234e-03 -2.612956872680225872e-04 5.417578461038951958e-04 2.113999999999999994e-03 7.349139379255074586e-03 -8.093964132875951928e-03 -4.487999999999999802e-03 -8.087886650614094577e-03 7.865610308604052345e-03 4.253999999999999969e-03 -8.353315101022544542e-03 7.933165750381667228e-03 4.499000000000000395e-03 -3.205562729228312517e-04 -9.353435673496311893e-05 1.923999999999999929e-03 7.349350142468295127e-03 -7.270315569726067823e-03 -4.418000000000000052e-03 1.440814911206055602e-04 4.057308515709186865e-04 1.920000000000000049e-03 7.606931661742247740e-03 -8.007406989380726550e-03 -4.520999999999999845e-03 -7.366294727056228384e-03 7.458285995732773406e-03 4.385000000000000009e-03 -8.039607929531360567e-03 7.854694032196065864e-03 4.336999999999999710e-03 -3.416245603309490871e-05 3.849921123838602097e-04 2.066000000000000128e-03 7.414203910875664244e-03 -7.361825070453385973e-03 -4.257000000000000367e-03 -2.857967196521857701e-04 5.738311903652937480e-04 1.889000000000000054e-03 7.779033853828883766e-03 -8.174783318289491688e-03 -4.854999999999999941e-03 -8.528328130812600286e-03 7.666370998927098633e-03 4.238999999999999713e-03 -7.834195136625326031e-03 7.403722209893891931e-03 4.436999999999999972e-03 -2.071970228984952220e-04 5.905670103400632908e-04 1.619999999999999912e-03 7.277422643935102693e-03 -7.142118709566554202e-03 -4.266999999999999960e-03 2.725149715746167663e-05 5.867080670168740592e-04 8.409999999999999507e-04 7.524200800728172989e-03 -7.751929779759458676e-03 -4.426000000000000247e-03 -8.315053475371087313e-03 7.350203446280872098e-03 5.596000000000000280e-03 -7.432916728135049132e-03 7.652269265558430018e-03 5.305999999999999953e-03 -3.546226117898561010e-04 1.309305281717790942e-04 1.366000000000000027e-03 7.448349436907723484e-03 -8.145104767019047468e-03 -4.981000000000000184e-03 -1.216539729071385012e-04 -2.520363284844254485e-04 4.939999999999999730e-04 7.398673219576870283e-03 -7.579280347758356705e-03 -4.325999999999999984e-03 -7.862989038600031941e-03 7.270606053064335682e-03 5.416999999999999940e-03 -8.334553492360105564e-03 7.904565015419126595e-03 5.140999999999999737e-03 -1.238879932479598062e-04 5.614058361821209499e-05 1.639000000000000049e-03 7.745192410136038548e-03 -8.034609295415122768e-03 -4.630999999999999700e-03 -4.193631997901172467e-04 5.224016717639734693e-04 6.329999999999999906e-04 7.450167260422248597e-03 -7.612527359013723273e-03 -4.592999999999999861e-03 -7.570712088579479963e-03 7.287164570107947451e-03 5.363999999999999845e-03 -7.920687358156479341e-03 7.948437819744210917e-03 5.269000000000000246e-03 1.620704317343835935e-04 -8.028807606008824178e-05 1.376000000000000053e-03 7.867553462927751040e-03 -7.923084532426342974e-03 -4.897000000000000311e-03 -4.957956720476845166e-05 6.541023364243456770e-04 1.407000000000000048e-03 7.952421960636571474e-03 -8.450613998993517298e-03 -4.465000000000000219e-03 -7.798551866738967844e-03 7.833247013964400596e-03 4.937999999999999681e-03 -8.003884673039945996e-03 8.098611741568813652e-03 4.442999999999999901e-03 -4.294909440684352257e-04 8.322184382499610809e-04 5.000000000000000240e-05 7.889256305055589169e-03 -8.338172458826970807e-03 -4.473000000000000413e-03 -1.619243240052261354e-04 7.414158841672132284e-04 9.859999999999998974e-04 7.989832930234365763e-03 -8.372368108662120792e-03 -4.579999999999999870e-03 -8.339873921215457467e-03 8.373510313974080049e-03 4.963000000000000397e-03 -7.604455416506199737e-03 8.199830657908096024e-03 4.552999999999999756e-03 -1.203968635885997812e-05 8.707858783606796599e-04 1.979999999999999881e-04 7.429330272229064426e-03 -8.268976762945995373e-03 -3.957999999999999713e-03 -2.959261960505505892e-04 7.503123676876925709e-05 1.250000000000000026e-03 7.571898954854382711e-03 -8.603519989950340896e-03 -4.775999999999999863e-03 -8.001360302600860064e-03 8.241872439437719633e-03 4.995000000000000308e-03 -8.413940388843427903e-03 8.151746569477567178e-03 4.697999999999999919e-03 -1.760893804579201198e-04 1.054965880488362769e-04 -6.799999999999999946e-05 7.783599743796643620e-03 -8.143047649889373699e-03 -4.147999999999999778e-03 -2.060717475875717625e-04 5.423204171393550656e-04 4.560000000000000251e-04 7.468719438271506292e-03 -7.842763795524215070e-03 -5.000000000000000104e-03 -7.864273620921046967e-03 8.001073266461529096e-03 4.734000000000000360e-03 -8.191389977577297199e-03 7.564957583175613461e-03 5.203000000000000159e-03 -2.988524981149673549e-04 -7.321328001423957029e-05 3.570000000000000040e-04 7.614938832566862589e-03 -7.584682628578815443e-03 -5.104000000000000030e-03 9.490225666112488275e-05 3.184015729870472437e-04 1.979999999999999881e-04 7.752282937022891667e-03 -7.735210356825711515e-03 -4.871000000000000330e-03 -7.328047499845739311e-03 7.658860544493849287e-03 4.798000000000000181e-03 -7.788134838282412611e-03 7.477257568168410931e-03 5.366000000000000110e-03 1.517755107651819119e-05 4.743149185333723409e-04 5.429999999999999714e-04 7.465793802407106119e-03 -7.680001881506256546e-03 -4.918999999999999762e-03 -3.513421035831342421e-04 5.199256930079318223e-04 2.329999999999999986e-04 7.745449966152259495e-03 -7.882136564525634229e-03 -5.355999999999999650e-03 -8.363073840997579250e-03 7.886800170539507229e-03 4.670999999999999805e-03 -7.556130968540494645e-03 7.020128259958169185e-03 5.255000000000000122e-03 -2.302351041104554121e-04 6.034606837526764389e-04 7.799999999999999859e-05 7.353481306728679168e-03 -7.542528599322106432e-03 -5.098000000000000101e-03