-5.102999777082280985e+01 -2.017278366805529117e+02 3.994847820004893180e+01 -2.017278366805529117e+02 1.925216717551727186e+01 5.417824970294343068e+00 3.994847820004893180e+01 5.417824970294343068e+00 2.999684711649613433e+01
-5.088201367770124506e+01 -2.016827789585534845e+02 3.990486331921670171e+01 -2.016827789585534561e+02 1.924538819374848586e+01 5.471130393698012462e+00 3.990486331921670171e+01 5.471130393698012462e+00 2.975228652386846306e+01
-5.099796026395653570e+01 -2.016248017778936230e+02 3.983592051180907845e+01 -2.016248017778936230e+02 1.896176127105930220e+01 5.526885876876867165e+00 3.983592051180907845e+01 5.526885876876867165e+00 2.913513855876278313e+01
-5.009618777688848468e+01 -2.015972284855055534e+02 3.973671059689458218e+01 -2.015972284855055534e+02 1.971132103530748125e+01 5.586997244165896603e+00 3.973671059689458218e+01 5.586997244165896603e+00 2.959705024600076584e+01
-4.941724308654370645e+01 -2.015687019449328830e+02 3.960557945879472896e+01 -2.015687019449328545e+02 2.024194005981201272e+01 5.653940620610701018e+00 3.960557945879472896e+01 5.653940620610701018e+00 2.982366069217519211e+01
