6.068999205044281808e+00 1.051181045900999145e+01 9.999955999997350159e-03 3.034500099435660125e+00 2.474939649777346120e-07 1.801417998324999914e+01 6.069000099435650775e+00 4.769939817887350842e-07 1.801417996649999509e+01 9.103500099435642312e+00 7.064939985997356093e-07 1.801417994974999459e+01 1.062074990068310143e+01 2.627950821243999258e+00 1.801417993874999723e+01 1.517249900683128816e+00 2.627950132743948508e+00 1.801417998900000228e+01 4.551749900683120131e+00 2.627950362243965721e+00 1.801417997225000178e+01 7.586249900683110781e+00 2.627950591743982489e+00 1.801417995549999773e+01 9.103499701929814947e+00 5.255910706493984286e+00 1.801417994449998972e+01 -2.980701586161172726e-07 5.255910017993933536e+00 1.801417999474999476e+01 3.034499701929832760e+00 5.255910247493949861e+00 1.801417997799999426e+01 6.068999701929823409e+00 5.255910476993967073e+00 1.801417996124999021e+01 7.586249503177283415e+00 7.883860591743967916e+00 1.801417995024999286e+01 -1.517250496822689865e+00 7.883859903243918055e+00 1.801418000049999790e+01 1.517249503177301229e+00 7.883860132743934379e+00 1.801417998374999740e+01 4.551749503177292766e+00 7.883860362243951592e+00 1.801417996699999691e+01 -3.937386760938713333e-08 1.751970016852516521e+00 1.687146999824999583e+01 3.034499960570925303e+00 1.751970246342544391e+00 1.686146998149999732e+01 6.068999960570915952e+00 1.751970475842561381e+00 1.686146996474999682e+01 9.103499960570907490e+00 1.751970705342578150e+00 1.686146994799999632e+01 -1.517250238181597322e+00 4.379919902092511919e+00 1.686147000400000096e+01 1.517249761818393772e+00 4.379920131592529131e+00 1.686146998725000046e+01 4.551749761818385309e+00 4.379920361092545456e+00 1.686146997049999996e+01 7.586249761818375958e+00 4.379920590592562668e+00 1.686146995374999946e+01 -3.034500436934884693e+00 7.007879787342496058e+00 1.686147000974999699e+01 -4.369348936292667556e-07 7.007880016842512383e+00 1.686146999299999294e+01 3.034499563065097494e+00 7.007880246342529595e+00 1.686146997624999244e+01 6.068999563065088587e+00 7.007880475842545920e+00 1.686146995949999194e+01 -4.551750635687415780e+00 9.635829672592480577e+00 1.686147001550000013e+01 -1.517250635687424687e+00 9.635829902092496013e+00 1.686146999874999608e+01 1.517249364312566406e+00 9.635830131592513226e+00 1.686146998199999558e+01 4.551749364312557944e+00 9.635830361092530438e+00 1.686146996524999508e+01 1.517249940112195050e+00 8.759801159014212191e-01 1.152709990750003355e+00 4.551749940112186366e+00 8.759803454014380986e-01 1.152709974000001969e+00 7.586249940112177015e+00 8.759805749014548670e-01 1.152709957250000361e+00 1.062074994011216944e+01 8.759808044014717465e-01 1.152709940499998975e+00 -2.586410924526745067e-07 3.503940001151405248e+00 1.152709996499996725e+00 3.034499741358898550e+00 3.503940230651422016e+00 1.152709979749995117e+00 6.068999741358890532e+00 3.503940460151438785e+00 1.152709962999993731e+00 9.103499741358881181e+00 3.503940689651455997e+00 1.152709946249992345e+00 -1.517250457393623631e+00 6.131889886401388878e+00 1.152710002249999865e+00 1.517249542606367463e+00 6.131890115901406091e+00 1.152709985499998480e+00 4.551749542606359000e+00 6.131890345401422415e+00 1.152709968749997094e+00 7.586249542606349650e+00 6.131890574901439628e+00 1.152709951999995486e+00 -3.034500656146911002e+00 8.759849771651373018e+00 1.152710007999993236e+00 -6.561469199184986024e-07 8.759850001151390231e+00 1.152709991249991850e+00 3.034499343853071185e+00 8.759850230651407443e+00 1.152709974499990242e+00 6.068999343853062278e+00 8.759850460151422880e+00 1.152709957749988856e+00
6.068999205044281808e+00 1.051181045900999145e+01 9.999955999997350159e-03 3.034500099435660125e+00 2.474939649777346120e-07 1.801417998324999914e+01 6.069000099435650775e+00 4.769939817887350842e-07 1.801417996649999509e+01 9.103500099435642312e+00 7.064939985997356093e-07 1.801417994974999459e+01 1.062074980124743284e+01 2.627950803250051148e+00 -6.125000253749203903e-08 1.517249801247460006e+00 2.627950114750000399e+00 -1.099999816526205749e-08 4.551749801247451543e+00 2.627950344250017611e+00 -2.774999962267205134e-08 7.586249801247442193e+00 2.627950573750034380e+00 -4.450000108008204022e-08 -3.034500397505818459e+00 5.255909770499967770e+00 1.149999659553110974e-08 -2.980701586161172726e-07 5.255910017993933536e+00 1.801417999474999476e+01 3.034499602494163728e+00 5.255910229500001307e+00 -2.200000631928888126e-08 6.068999701929823409e+00 5.255910476993967073e+00 1.801417996124999021e+01 7.586249403741614827e+00 7.883860573750019363e+00 -4.975000594196092598e-08 -1.517250596258358675e+00 7.883859885249969501e+00 4.999984302690526601e-10 1.517249403741632419e+00 7.883860114749985826e+00 -1.625000302714094160e-08 4.551749403741624178e+00 7.883860344250003038e+00 -3.300000448455093379e-08 -3.937386760938713333e-08 1.751970016852516521e+00 1.687146999824999583e+01 3.034499960570925303e+00 1.751970246342544391e+00 1.686146998149999732e+01 6.068999960570915952e+00 1.751970475842561381e+00 1.686146996474999682e+01 9.103499960570907490e+00 1.751970705342578150e+00 1.686146994799999632e+01 -1.517250238181597322e+00 4.379919902092511919e+00 1.686147000400000096e+01 1.517249761818393772e+00 4.379920131592529131e+00 1.686146998725000046e+01 4.551749761818385309e+00 4.379920361092545456e+00 1.686146997049999996e+01 7.586249761818375958e+00 4.379920590592562668e+00 1.686146995374999946e+01 -3.034500436934884693e+00 7.007879787342496058e+00 1.686147000974999699e+01 -4.369348936292667556e-07 7.007880016842512383e+00 1.686146999299999294e+01 3.034499563065097494e+00 7.007880246342529595e+00 1.686146997624999244e+01 6.068999563065088587e+00 7.007880475842545920e+00 1.686146995949999194e+01 -4.551750635687415780e+00 9.635829672592480577e+00 1.686147001550000013e+01 -1.517250635687424687e+00 9.635829902092496013e+00 1.686146999874999608e+01 1.517249364312566406e+00 9.635830131592513226e+00 1.686146998199999558e+01 4.551749364312557944e+00 9.635830361092530438e+00 1.686146996524999508e+01 1.517249940112195050e+00 8.759801159014212191e-01 1.152709990750003355e+00 4.551749940112186366e+00 8.759803454014380986e-01 1.152709974000001969e+00 7.586249940112177015e+00 8.759805749014548670e-01 1.152709957250000361e+00 1.062074994011216944e+01 8.759808044014717465e-01 1.152709940499998975e+00 -2.586410924526745067e-07 3.503940001151405248e+00 1.152709996499996725e+00 3.034499741358898550e+00 3.503940230651422016e+00 1.152709979749995117e+00 6.068999741358890532e+00 3.503940460151438785e+00 1.152709962999993731e+00 9.103499741358881181e+00 3.503940689651455997e+00 1.152709946249992345e+00 -1.517250457393623631e+00 6.131889886401388878e+00 1.152710002249999865e+00 1.517249542606367463e+00 6.131890115901406091e+00 1.152709985499998480e+00 4.551749542606359000e+00 6.131890345401422415e+00 1.152709968749997094e+00 7.586249542606349650e+00 6.131890574901439628e+00 1.152709951999995486e+00 -3.034500656146911002e+00 8.759849771651373018e+00 1.152710007999993236e+00 -6.561469199184986024e-07 8.759850001151390231e+00 1.152709991249991850e+00 3.034499343853071185e+00 8.759850230651407443e+00 1.152709974499990242e+00 6.068999343853819006e+00 8.759840460151423258e+00 1.152709957749998848e+00
6.068999205044226741e+00 1.051181045900998257e+01 9.989955999997350566e-03 3.034500099435660125e+00 2.474939649777346120e-07 1.801417998324999914e+01 6.069000099435650775e+00 4.769939817887350842e-07 1.801417996649999509e+01 9.103500099435642312e+00 7.064939985997356093e-07 1.801417994974999459e+01 1.062074980124743284e+01 2.627950803250051148e+00 -6.125000253749203903e-08 1.517249801247460006e+00 2.627950114750000399e+00 -1.099999816526205749e-08 4.551749801247451543e+00 2.627950344250017611e+00 -2.774999962267205134e-08 7.586249801247442193e+00 2.627950573750034380e+00 -4.450000108008204022e-08 -3.034500397505818459e+00 5.255909770499967770e+00 1.149999659553110974e-08 -2.980701586161172726e-07 5.255910017993933536e+00 1.801417999474999476e+01 3.034499602494163728e+00 5.255910229500001307e+00 -2.200000631928888126e-08 6.068999701929823409e+00 5.255910476993967073e+00 1.801417996124999021e+01 7.586249403741614827e+00 7.883860573750019363e+00 -4.975000594196092598e-08 -1.517250596258358675e+00 7.883859885249969501e+00 4.999984302690526601e-10 1.517249403741632419e+00 7.883860114749985826e+00 -1.625000302714094160e-08 4.551749403741624178e+00 7.883860344250003038e+00 -3.300000448455093379e-08 -3.937386760938713333e-08 1.751970016852516521e+00 1.687146999824999583e+01 3.034499960570925303e+00 1.751970246342544391e+00 1.686146998149999732e+01 6.068999960570915952e+00 1.751970475842561381e+00 1.686146996474999682e+01 9.103499960570907490e+00 1.751970705342578150e+00 1.686146994799999632e+01 -1.517250238181597322e+00 4.379919902092511919e+00 1.686147000400000096e+01 1.517249761818393772e+00 4.379920131592529131e+00 1.686146998725000046e+01 4.551749761818385309e+00 4.379920361092545456e+00 1.686146997049999996e+01 7.586249761818375958e+00 4.379920590592562668e+00 1.686146995374999946e+01 -3.034500436934884693e+00 7.007879787342496058e+00 1.686147000974999699e+01 -4.369348936292667556e-07 7.007880016842512383e+00 1.686146999299999294e+01 3.034499563065097494e+00 7.007880246342529595e+00 1.686146997624999244e+01 6.068999563065088587e+00 7.007880475842545920e+00 1.686146995949999194e+01 -4.551750635687415780e+00 9.635829672592480577e+00 1.686147001550000013e+01 -1.517250635687424687e+00 9.635829902092496013e+00 1.686146999874999608e+01 1.517249364312566406e+00 9.635830131592513226e+00 1.686146998199999558e+01 4.551749364312557944e+00 9.635830361092530438e+00 1.686146996524999508e+01 1.517249940112195050e+00 8.759801159014212191e-01 1.152709990750003355e+00 4.551749940112186366e+00 8.759803454014380986e-01 1.152709974000001969e+00 7.586249940112177015e+00 8.759805749014548670e-01 1.152709957250000361e+00 1.062074994011216944e+01 8.759808044014717465e-01 1.152709940499998975e+00 -2.586410924526745067e-07 3.503940001151405248e+00 1.152709996499996725e+00 3.034499741358898550e+00 3.503940230651422016e+00 1.152709979749995117e+00 6.068999741358890532e+00 3.503940460151438785e+00 1.152709962999993731e+00 9.103499741358881181e+00 3.503940689651455997e+00 1.152709946249992345e+00 -1.517250457393623631e+00 6.131889886401388878e+00 1.152710002249999865e+00 1.517249542606367463e+00 6.131890115901406091e+00 1.152709985499998480e+00 4.551749542606359000e+00 6.131890345401422415e+00 1.152709968749997094e+00 7.586249542606349650e+00 6.131890574901439628e+00 1.152709951999995486e+00 -3.034500656146911002e+00 8.759849771651373018e+00 1.152710007999993236e+00 -6.561469199184986024e-07 8.759850001151390231e+00 1.152709991249991850e+00 3.034499343853071185e+00 8.759850230651407443e+00 1.152709974499990242e+00 6.068999343853819006e+00 8.759840460151423258e+00 1.152709957749998848e+00
6.068999205044171674e+00 1.051181045900997191e+01 9.979955999997349239e-03 3.034500099435660125e+00 2.474939649777346120e-07 1.801417998324999914e+01 6.069000099435650775e+00 4.769939817887350842e-07 1.801417996649999509e+01 9.103500099435642312e+00 7.064939985997356093e-07 1.801417994974999459e+01 1.062073980124667827e+01 2.627960803249294930e+00 -6.124995732770199796e-08 1.517249801246703722e+00 2.627960114750000464e+00 -1.100000815402682211e-08 4.551749801247451543e+00 2.627950344250017611e+00 -2.774999962267205134e-08 7.586249801247442193e+00 2.627950573750034380e+00 -4.450000108008204022e-08 -3.034500397505818459e+00 5.255909770499967770e+00 1.149999659553110974e-08 -2.980701586161172726e-07 5.255910017993933536e+00 1.801417999474999476e+01 3.034499602494163728e+00 5.255910229500001307e+00 -2.200000631928888126e-08 6.068999701929823409e+00 5.255910476993967073e+00 1.801417996124999021e+01 7.586249403741614827e+00 7.883860573750019363e+00 -4.975000594196092598e-08 -1.517250596258358675e+00 7.883859885249969501e+00 4.999984302690526601e-10 1.517249403741632419e+00 7.883860114749985826e+00 -1.625000302714094160e-08 4.551749403741624178e+00 7.883860344250003038e+00 -3.300000448455093379e-08 -3.937392280794118627e-08 1.751970016852506529e+00 1.687145999824999620e+01 3.034499960570925303e+00 1.751970246342544391e+00 1.686146998149999732e+01 6.068999960570915952e+00 1.751970475842561381e+00 1.686146996474999682e+01 9.103499960570907490e+00 1.751970705342578150e+00 1.686146994799999632e+01 -1.517250238181597322e+00 4.379919902092511919e+00 1.686147000400000096e+01 1.517249761818393772e+00 4.379920131592529131e+00 1.686146998725000046e+01 4.551749761818385309e+00 4.379920361092545456e+00 1.686146997049999996e+01 7.586249761818375958e+00 4.379920590592562668e+00 1.686146995374999946e+01 -3.034500436934884693e+00 7.007879787342496058e+00 1.686147000974999699e+01 -4.369348936292667556e-07 7.007880016842512383e+00 1.686146999299999294e+01 3.034499563065097494e+00 7.007880246342529595e+00 1.686146997624999244e+01 6.068999563065088587e+00 7.007880475842545920e+00 1.686146995949999194e+01 -4.551750635687415780e+00 9.635829672592480577e+00 1.686147001550000013e+01 -1.517250635687424687e+00 9.635829902092496013e+00 1.686146999874999608e+01 1.517249364312566406e+00 9.635830131592513226e+00 1.686146998199999558e+01 4.551749364312557944e+00 9.635830361092530438e+00 1.686146996524999508e+01 1.517249940112195050e+00 8.759801159014212191e-01 1.152709990750003355e+00 4.551749940112186366e+00 8.759803454014380986e-01 1.152709974000001969e+00 7.586249940112177015e+00 8.759805749014548670e-01 1.152709957250000361e+00 1.062074994011216944e+01 8.759808044014717465e-01 1.152709940499998975e+00 -2.586410924526745067e-07 3.503940001151405248e+00 1.152709996499996725e+00 3.034499741358898550e+00 3.503940230651422016e+00 1.152709979749995117e+00 6.068999741358890532e+00 3.503940460151438785e+00 1.152709962999993731e+00 9.103499741358881181e+00 3.503940689651455997e+00 1.152709946249992345e+00 -1.517250457393623631e+00 6.131889886401388878e+00 1.152710002249999865e+00 1.517249542606367463e+00 6.131890115901406091e+00 1.152709985499998480e+00 4.551749542606359000e+00 6.131890345401422415e+00 1.152709968749997094e+00 7.586249542606349650e+00 6.131890574901439628e+00 1.152709951999995486e+00 -3.034500656146911002e+00 8.759849771651373018e+00 1.152710007999993236e+00 -6.561469199184986024e-07 8.759850001151390231e+00 1.152709991249991850e+00 3.034499343853071185e+00 8.759850230651407443e+00 1.152709974499990242e+00 6.068999343853819006e+00 8.759840460151423258e+00 1.152709957749998848e+00
6.068999205044116607e+00 1.051181045900996125e+01 9.969955999997349647e-03 3.034500099435660125e+00 2.474939649777346120e-07 1.801417998324999914e+01 6.069000099435650775e+00 4.769939817887350842e-07 1.801417996649999509e+01 9.103500099435642312e+00 7.064939985997356093e-07 1.801417994974999459e+01 1.062073980124673334e+01 2.627960803249304700e+00 9.938750042672298807e-06 1.517259801246759077e+00 2.627960114750766962e+00 9.988999936647419652e-06 4.551749801247451543e+00 2.627950344250017611e+00 -2.774999962267205134e-08 7.586249801247442193e+00 2.627950573750034380e+00 -4.450000108008204022e-08 -3.034500397505818459e+00 5.255909770499967770e+00 1.149999659553110974e-08 -2.980702138146713123e-07 5.255910017993922878e+00 1.801416999474999514e+01 3.034499602494163728e+00 5.255910229500001307e+00 -2.200000631928888126e-08 6.068999701929823409e+00 5.255910476993967073e+00 1.801417996124999021e+01 7.586249403741614827e+00 7.883860573750019363e+00 -4.975000594196092598e-08 -1.517250596258358675e+00 7.883859885249969501e+00 4.999984302690526601e-10 1.517249403741632419e+00 7.883860114749985826e+00 -1.625000302714094160e-08 4.551749403741624178e+00 7.883860344250003038e+00 -3.300000448455093379e-08 -3.937392280794118627e-08 1.751970016852506529e+00 1.687145999824999620e+01 3.034499960570925303e+00 1.751970246342544391e+00 1.686146998149999732e+01 6.068999960570915952e+00 1.751970475842561381e+00 1.686146996474999682e+01 9.103499960570907490e+00 1.751970705342578150e+00 1.686146994799999632e+01 -1.517250238181597322e+00 4.379919902092511919e+00 1.686147000400000096e+01 1.517249761818393772e+00 4.379920131592529131e+00 1.686146998725000046e+01 4.551749761818385309e+00 4.379920361092545456e+00 1.686146997049999996e+01 7.586249761818375958e+00 4.379920590592562668e+00 1.686146995374999946e+01 -3.034500436934884693e+00 7.007879787342496058e+00 1.686147000974999699e+01 -4.369348936292667556e-07 7.007880016842512383e+00 1.686146999299999294e+01 3.034499563065097494e+00 7.007880246342529595e+00 1.686146997624999244e+01 6.068999563065088587e+00 7.007880475842545920e+00 1.686146995949999194e+01 -4.551750635687415780e+00 9.635829672592480577e+00 1.686147001550000013e+01 -1.517250635687424687e+00 9.635829902092496013e+00 1.686146999874999608e+01 1.517249364312566406e+00 9.635830131592513226e+00 1.686146998199999558e+01 4.551749364312557944e+00 9.635830361092530438e+00 1.686146996524999508e+01 1.517249940111438766e+00 8.759901159014212846e-01 1.152709990749993363e+00 4.551749940112186366e+00 8.759803454014380986e-01 1.152709974000001969e+00 7.586249940112177015e+00 8.759805749014548670e-01 1.152709957250000361e+00 1.062074994011216944e+01 8.759808044014717465e-01 1.152709940499998975e+00 -2.586410924526745067e-07 3.503940001151405248e+00 1.152709996499996725e+00 3.034499741358898550e+00 3.503940230651422016e+00 1.152709979749995117e+00 6.068999741358890532e+00 3.503940460151438785e+00 1.152709962999993731e+00 9.103499741358881181e+00 3.503940689651455997e+00 1.152709946249992345e+00 -1.517250457393623631e+00 6.131889886401388878e+00 1.152710002249999865e+00 1.517249542606367463e+00 6.131890115901406091e+00 1.152709985499998480e+00 4.551749542606359000e+00 6.131890345401422415e+00 1.152709968749997094e+00 7.586249542606349650e+00 6.131890574901439628e+00 1.152709951999995486e+00 -3.034500656146911002e+00 8.759849771651373018e+00 1.152710007999993236e+00 -6.561469199184986024e-07 8.759850001151390231e+00 1.152709991249991850e+00 3.034499343853071185e+00 8.759850230651407443e+00 1.152709974499990242e+00 6.068999343853819006e+00 8.759840460151423258e+00 1.152709957749998848e+00
6.068999205044762313e+00 1.051180045900994031e+01 9.949956000007338999e-03 3.034500099435660125e+00 2.474939649777346120e-07 1.801417998324999914e+01 6.069000099435650775e+00 4.769939817887350842e-07 1.801417996649999509e+01 9.103500099435642312e+00 7.064939985997356093e-07 1.801417994974999459e+01 1.062073980124673334e+01 2.627960803249304700e+00 9.938750042672298807e-06 1.517259801246759077e+00 2.627960114750766962e+00 9.988999936647419652e-06 4.551749801247451543e+00 2.627950344250017611e+00 -2.774999962267205134e-08 7.586249801247442193e+00 2.627950573750034380e+00 -4.450000108008204022e-08 -3.034500397505818459e+00 5.255909770499967770e+00 1.149999659553110974e-08 -2.980702138146713123e-07 5.255910017993922878e+00 1.801416999474999514e+01 3.034499602494163728e+00 5.255910229500001307e+00 -2.200000631928888126e-08 6.068999701929768342e+00 5.255910476993956415e+00 1.801416996124999059e+01 7.586249403741614827e+00 7.883860573750019363e+00 -4.975000594196092598e-08 -1.517250596258358675e+00 7.883859885249969501e+00 4.999984302690526601e-10 1.517249403741632419e+00 7.883860114749985826e+00 -1.625000302714094160e-08 4.551749403741624178e+00 7.883860344250003038e+00 -3.300000448455093379e-08 -3.937392280794118627e-08 1.751970016852506529e+00 1.687145999824999620e+01 3.034499960570925303e+00 1.751970246342544391e+00 1.686146998149999732e+01 6.068999960570915952e+00 1.751970475842561381e+00 1.686146996474999682e+01 9.103499960570907490e+00 1.751970705342578150e+00 1.686146994799999632e+01 -1.517250238181597322e+00 4.379919902092511919e+00 1.686147000400000096e+01 1.517249761818393772e+00 4.379920131592529131e+00 1.686146998725000046e+01 4.551749761818385309e+00 4.379920361092545456e+00 1.686146997049999996e+01 7.586249761818375958e+00 4.379920590592562668e+00 1.686146995374999946e+01 -3.034500436934884693e+00 7.007879787342496058e+00 1.686147000974999699e+01 -4.369348936292667556e-07 7.007880016842512383e+00 1.686146999299999294e+01 3.034499563065097494e+00 7.007880246342529595e+00 1.686146997624999244e+01 6.068999563065088587e+00 7.007880475842545920e+00 1.686146995949999194e+01 -4.551750635687415780e+00 9.635829672592480577e+00 1.686147001550000013e+01 -1.517250635687424687e+00 9.635829902092496013e+00 1.686146999874999608e+01 1.517249364312566406e+00 9.635830131592513226e+00 1.686146998199999558e+01 4.551749364312557944e+00 9.635830361092530438e+00 1.686146996524999508e+01 1.517249940111438766e+00 8.759901159014212846e-01 1.152709990749993363e+00 4.551749940112130410e+00 8.759803454014281066e-01 1.152699974000002126e+00 7.586249940112121060e+00 8.759805749014448750e-01 1.152699957250000518e+00 1.062073994011216982e+01 8.759808044007153516e-01 1.152709940500054264e+00 -2.586410924526745067e-07 3.503940001151405248e+00 1.152709996499996725e+00 3.034499741358843483e+00 3.503940230651411802e+00 1.152699979749995274e+00 6.068999741358834576e+00 3.503940460151428571e+00 1.152699962999993888e+00 9.103499741358826114e+00 3.503940689651445783e+00 1.152699946249992502e+00 -1.517250457393678920e+00 6.131889886401379108e+00 1.152700002250000022e+00 1.517249542606312174e+00 6.131890115901396321e+00 1.152699985499998636e+00 4.551749542606303045e+00 6.131890345401412645e+00 1.152699968749997250e+00 7.586249542606293694e+00 6.131890574901429858e+00 1.152699951999995642e+00 -3.034500656146966069e+00 8.759849771651364136e+00 1.152700007999993392e+00 -6.561469751170526421e-07 8.759850001151381349e+00 1.152699991249992006e+00 3.034499343853016118e+00 8.759850230651398562e+00 1.152699974499990399e+00 6.068999343853819006e+00 8.759840460151423258e+00 1.152709957749998848e+00
