-4.702369550199999821e+02
-4.702369556300000113e+02
-4.702369568199999890e+02
-4.702369586199999958e+02
-4.702369610800000146e+02
-4.702369641799999727e+02
