-9.988103605158332882e-07 -2.260900009422670345e-02 -9.425699997741086855e-02 1.629999777593487081e-04 2.740000120530400904e-04 -2.750000011734286126e-04 9.999759348309891961e-07 2.989999998129247677e-04 -2.630000003041839201e-04 -1.620000223273203386e-04 2.749999874712085899e-04 -2.769999993804744755e-04 -2.061100076730820393e-02 1.149799845969491467e-02 1.853100010228465877e-02 2.060999923283189997e-02 1.149600157724776570e-02 1.852899987475269475e-02 -2.699997446432495695e-05 -3.010000015405798904e-04 5.020000004496978467e-04 2.800002539545408029e-05 -2.989999973789179955e-04 5.040000001441081404e-04 3.829999772754956867e-04 3.120000291242103077e-04 1.579999975742458682e-04 -3.573752115722463064e-11 3.739999986515150747e-04 -1.350000000373579928e-03 -3.840000228812824904e-04 3.139999711148038332e-04 1.570000018059772913e-04 9.999838873772964829e-07 1.539999992675384125e-04 -8.090000001593468599e-04 -9.299998020736358181e-05 -1.450000054364093802e-04 1.599000000658183521e-03 -3.529999730530535506e-04 -3.490000265975922648e-04 1.000000022971168743e-04 3.490000269414245950e-04 -3.489999735061502691e-04 9.899999842217832623e-05 9.600001971148576908e-05 -1.439999911432895811e-04 1.597999999613932114e-03 1.737769199754039334e-09 -2.921700008539889620e-02 -8.549499997081583258e-02 3.440001871104922610e-04 -1.082999954945593592e-03 1.905899999918295173e-02 1.899983662134239104e-10 -1.068999980248205254e-03 1.977400000106779854e-02 -3.419998131274363173e-04 -1.080000006829948079e-03 1.905700000296657939e-02 -1.473999993201428795e-03 1.435999909404515320e-03 2.090700000670187714e-02 1.470000007014413525e-03 1.433000132057996078e-03 2.090499999045442384e-02 -4.259999043747652193e-04 2.239999881516060944e-04 2.039300000212771261e-02 4.310000951880103197e-04 2.300000529697335055e-04 2.039599999739120234e-02 -1.419999645664000261e-04 1.006000009440810279e-03 2.020299999977894986e-02 -7.999859623733297616e-06 -4.349999811559087846e-04 1.947100000047866791e-02 1.410000354170396202e-04 1.006000030841176568e-03 2.019999999821682837e-02 5.999886289825225726e-06 2.887000019388483683e-03 1.895599999708312555e-02 -2.338600065976114903e-02 1.144999826862580505e-02 3.735700011765020340e-02 -1.300999917080893379e-03 4.219999223856685461e-04 2.080400000675980410e-02 1.299000082616578317e-03 4.260001190243383460e-04 2.080399999240418671e-02 2.338999933969827111e-02 1.145700180630473963e-02 3.735499985944645135e-02 3.831599956891615366e-02 7.320002920021999489e-03 2.219799978118943903e-02 1.309999863464889709e-03 3.810000795825538083e-04 -1.951500000761158260e-02 -1.308000137070034277e-03 3.879998815815403901e-04 -1.951599999316759246e-02 -3.831900043139718770e-02 7.323997124095207693e-03 2.219600020419957090e-02 -4.001320581988397805e-06 1.771100000311858283e-02 3.424999982330978032e-03 -1.318000076478910822e-03 -4.430001195833004361e-04 -1.992499999228232802e-02 3.999890601161845677e-06 -3.400001995969666239e-05 -2.028499999998811809e-02 1.318999923417851902e-03 -4.419999201513054050e-04 -1.993000000683918527e-02 3.699985153047178184e-05 5.079999828837095067e-04 -1.993700000071166323e-02 -4.200014844744855868e-05 5.079999769129145762e-04 -1.993300000027559485e-02 -2.990000403856504481e-04 -8.490000415411627990e-04 -1.894899999750151651e-02 3.039999597435289001e-04 -8.509999959401128933e-04 -1.895300000082799155e-02 2.534000025472642019e-03 -1.896999829705913040e-03 -2.137700001209244527e-02 -5.000074072587391686e-06 -4.700000202148461675e-04 -1.985899999950293052e-02 -2.536999974807784691e-03 -1.893000213222953984e-03 -2.137299998410525231e-02 2.002036841144563723e-06 -2.715300000287925591e-02 -3.033999972888546531e-03
1.188914076300336648e-09 -2.259700009411810817e-02 -9.422399997742839095e-02 1.629999776080881936e-04 2.760000120530400306e-04 -2.750000011754263635e-04 -2.390286878180527186e-11 2.969999997392922669e-04 -2.610000002966663389e-04 -1.630000223162806369e-04 2.749999873975760836e-04 -2.749999993749545910e-04 -2.059700076666616878e-02 1.148899846074674484e-02 1.852400010221636958e-02 2.059699923333371471e-02 1.148900157625957867e-02 1.852399987483144272e-02 -2.899997461006560966e-05 -2.990000016908415351e-04 5.030000004587399003e-04 2.900002546556447854e-05 -2.999999973042865838e-04 5.030000001395871015e-04 3.839999771131954705e-04 3.140000291978428085e-04 1.559999975667282870e-04 -3.571544173560239893e-11 3.739999986555105765e-04 -1.346000000373579831e-03 -3.840000228812824904e-04 3.139999711148038332e-04 1.570000018059772913e-04 -1.000015961362182332e-06 1.519999991162779035e-04 -8.090000001463094371e-04 -9.399998029955339816e-05 -1.440000055150362937e-04 1.596000000662704680e-03 -3.499999729884630006e-04 -3.500000263726992140e-04 9.800000228155617997e-05 3.500000270115349323e-04 -3.499999734315188574e-04 9.799999841765734149e-05 9.300001970044605149e-05 -1.439999913721781038e-04 1.595999999630491736e-03 1.736789301840700347e-09 -2.920200008537092787e-02 -8.546699997083080647e-02 3.440001868449625295e-04 -1.079999954952585647e-03 1.905199999917995407e-02 1.897052371756182444e-10 -1.065999980260191795e-03 1.976200000106479934e-02 -3.429998131550355211e-04 -1.080000006910572605e-03 1.905200000297209775e-02 -1.471999993192036737e-03 1.434999909543789413e-03 2.089500000669183843e-02 1.472000006802434702e-03 1.435000132198268902e-03 2.089399999044138506e-02 -4.259999046623744027e-04 2.269999881406184288e-04 2.038200000212471441e-02 4.270000953431430193e-04 2.270000526542270767e-04 2.038299999741627344e-02 -1.399999644592983398e-04 1.004000009584079742e-03 2.019499999976990742e-02 1.405054477714486499e-10 -4.369999805548622769e-04 1.946700000043651013e-02 1.400000355241412607e-04 1.004000030757555258e-03 2.019199999822434907e-02 -1.135329626828417559e-10 2.884000018925711971e-03 1.894699999711924043e-02 -2.337200065973132207e-02 1.144799826966265421e-02 3.733500011757492215e-02 -1.301999917217241910e-03 4.229999222990505204e-04 2.079300000676432766e-02 1.302000082771710915e-03 4.230001192382436639e-04 2.079099999239062552e-02 2.337299934026854792e-02 1.144800180499904764e-02 3.733499985954927963e-02 3.829299956943287703e-02 7.312002918266521587e-03 2.218199978132438799e-02 1.306999863077346665e-03 3.870000793676495253e-04 -1.950300000760101654e-02 -1.307000136922645966e-03 3.869998816701560583e-04 -1.950299999317211402e-02 -3.829400043056690323e-02 7.311997125971980011e-03 2.218200020407356046e-02 -1.320058096461662659e-09 1.770400000342010199e-02 3.423999982315891009e-03 -1.315000076650603162e-03 -4.400001193464208910e-04 -1.991499999230188223e-02 -1.089654882994958555e-10 -3.900002025222890930e-05 -2.027499999996104640e-02 1.314999923419499575e-03 -4.409999204398420991e-04 -1.991600000681810478e-02 4.099985158567033284e-05 5.079999831962192904e-04 -1.992700000073374320e-02 -4.100014841432943771e-05 5.079999769945380862e-04 -1.992700000028111568e-02 -3.020000404171219286e-04 -8.480000417600625428e-04 -1.894099999748595498e-02 3.009999595994359732e-04 -8.479999961520205687e-04 -1.893800000081442836e-02 2.532000025247399186e-03 -1.892999829843189201e-03 -2.136300001208540217e-02 -7.363923756293612064e-11 -4.750000198267061396e-04 -1.984899999952553090e-02 -2.533999974763625606e-03 -1.893000212988072209e-03 -2.136499998412181092e-02 2.035328539416900070e-09 -2.713300000303051421e-02 -3.033999972897484260e-03
-9.988126399689579129e-07 -2.257200009413280750e-02 -9.416299997744784211e-02 1.639999776191278897e-04 2.760000121306680388e-04 -2.730000011809462050e-04 9.999759403508445683e-07 2.989999998139236431e-04 -2.620000003041839500e-04 -1.640000222351305139e-04 2.739999873229446775e-04 -2.739999993684358553e-04 -2.057600076574369469e-02 1.147599846232399273e-02 1.851300010211344091e-02 2.057699923410492848e-02 1.147800157473598606e-02 1.851299987495283114e-02 -2.799997454547506424e-05 -3.000000016172089988e-04 5.010000004542189455e-04 2.700002553015503235e-05 -3.009999974575448736e-04 5.010000001516257085e-04 3.819999771131954761e-04 3.140000290465822940e-04 1.559999975777679859e-04 2.999964197888287801e-06 3.749999988804036217e-04 -1.348000000391138316e-03 -3.830000229569127234e-04 3.149999711904341148e-04 1.570000017994585529e-04 -3.000016129182258653e-06 1.539999989620207570e-04 -8.120000001372673724e-04 -9.499998021840328865e-05 -1.450000055896676727e-04 1.597000000669223253e-03 -3.499999730640932579e-04 -3.490000263726992439e-04 9.800000228055730450e-05 3.520000270060150908e-04 -3.499999732812572183e-04 9.699999840661763185e-05 9.300001985170656602e-05 -1.459999913721780982e-04 1.595999999632489487e-03 1.734870369421203342e-09 -2.917400008533496680e-02 -8.543099997085878972e-02 3.470001864281721938e-04 -1.074999954732687099e-03 1.904499999915840180e-02 1.000189493258247930e-06 -1.063999980195549228e-03 1.975100000105728740e-02 -3.449998133614946057e-04 -1.078000007071821826e-03 1.904200000298113954e-02 -1.471999993182644727e-03 1.433999909531802558e-03 2.088300000669283604e-02 1.474000006747236283e-03 1.435000132339540662e-03 2.088399999043034569e-02 -4.259999047286126502e-04 2.269999881286319232e-04 2.037000000212471282e-02 4.250000953525349262e-04 2.260000524909800594e-04 2.037099999742831430e-02 -1.399999644609460560e-04 1.003000009570095569e-03 2.018099999977090650e-02 2.000140531399324242e-06 -4.379999804125916658e-04 1.945800000042646749e-02 1.400000356202032266e-04 1.002000030747566672e-03 2.018199999822634441e-02 -1.000113274600492406e-06 2.880000018842090830e-03 1.893899999712875606e-02 -2.335300065897831512e-02 1.143599827107166095e-02 3.730700011748203093e-02 -1.299999917375670036e-03 4.239999224353279274e-04 2.077800000675229103e-02 1.302000082722032338e-03 4.230001192292537847e-04 2.078199999239062346e-02 2.335399934104915101e-02 1.143600180353909930e-02 3.731199985966614230e-02 3.827099957014889337e-02 7.301002916581680359e-03 2.216099978145681312e-02 1.303999863110465824e-03 3.870000791467520062e-04 -1.949700000758445781e-02 -1.306000136668156045e-03 3.839998817507807825e-04 -1.949799999317463825e-02 -3.827100042978077293e-02 7.299997127689501243e-03 2.216000020395858874e-02 9.986806816465455180e-07 1.769400000349273874e-02 3.420999982320359692e-03 -1.307000076875846403e-03 -4.360001187273945876e-04 -1.990099999235003803e-02 -2.000108834659481840e-06 -4.000002039350065964e-05 -2.026499999994900436e-02 1.307999923351036917e-03 -4.389999209542708278e-04 -1.990100000678146283e-02 4.099985165190859392e-05 5.079999832082057959e-04 -1.991500000073374160e-02 -3.900014830558004873e-05 5.069999771517918292e-04 -1.992100000029115719e-02 -3.030000404485933062e-04 -8.470000418277017721e-04 -1.893299999748143322e-02 2.999999594812945581e-04 -8.459999962216575246e-04 -1.893200000081090781e-02 2.531000025064667185e-03 -1.889999829910828490e-03 -2.135500001208287535e-02 9.999263237711642428e-07 -4.740000197440836756e-04 -1.984199999953204993e-02 -2.530999974708427174e-03 -1.893000212751192683e-03 -2.135499998413837100e-02 -9.979658500732880594e-07 -2.711800000311413369e-02 -3.041999972906947805e-03
-9.988153549963446075e-07 -2.252800009402193201e-02 -9.405199997749179308e-02 1.639999776781985851e-04 2.750000121276714423e-04 -2.760000011799472941e-04 -2.367045815346078013e-11 2.939999997402911237e-04 -2.600000002936696882e-04 -1.630000222461702427e-04 2.739999873965771838e-04 -2.759999993739556856e-04 -2.053500076420126594e-02 1.145399846540285857e-02 1.849100010190910318e-02 2.053599923572850539e-02 1.145500157161416857e-02 1.849199987520211766e-02 -2.799997469121572594e-05 -2.980000016162101290e-04 5.020000004522211104e-04 2.700002530326426055e-05 -2.979999974575448548e-04 5.010000001486290822e-04 3.819999769674548517e-04 3.160000290475811638e-04 1.569999975757702321e-04 -3.555314150949865408e-11 3.719999986575083331e-04 -1.344000000371582031e-03 -3.830000228868023562e-04 3.139999711894352150e-04 1.560000018004574311e-04 -1.581010167004365939e-11 1.499999991919081393e-04 -8.090000001498314679e-04 -9.399998031611296004e-05 -1.440000055180329201e-04 1.593000000662704715e-03 -3.489999731452433809e-04 -3.480000262980678378e-04 9.700000227403858240e-05 3.500000268547545819e-04 -3.479999734325177384e-04 9.699999841565959337e-05 9.300001968388648961e-05 -1.439999913751747302e-04 1.592999999630491771e-03 1.731914692816281229e-09 -2.913200008529501575e-02 -8.539099997090073002e-02 3.450001863950530757e-04 -1.074999954889940866e-03 1.903899999916944252e-02 1.895081700990496474e-10 -1.064999980282167139e-03 1.974000000106380243e-02 -3.449998135348345723e-04 -1.076000007075817279e-03 1.903800000297914061e-02 -1.470999992994393053e-03 1.430999909600440831e-03 2.087600000669031369e-02 1.472000007000078469e-03 1.431000132179290280e-03 2.087499999044538021e-02 -4.259999047081809687e-04 2.259999881186431443e-04 2.036000000212571243e-02 4.270000952973364533e-04 2.260000526322517923e-04 2.036099999741727493e-02 -1.389999644349945143e-04 1.002000009636735923e-03 2.017199999976638375e-02 1.000140395050660258e-06 -4.369999804992095289e-04 1.944700000043098759e-02 1.390000355594848177e-04 1.002000030660948893e-03 2.017099999823186718e-02 -1.129406080505138797e-10 2.875000018909730070e-03 1.893099999712823112e-02 -2.331600065786371828e-02 1.141899827383901535e-02 3.727600011729477469e-02 -1.298999917333158987e-03 4.229999225049649075e-04 2.077200000674776781e-02 1.300000082736944189e-03 4.220001190670057242e-04 2.077099999240266184e-02 2.331799934208811723e-02 1.142000180078544397e-02 3.728099985988084231e-02 3.822299957136120196e-02 7.283002912924458477e-03 2.213399978173974728e-02 1.303999863257854002e-03 3.860000791597374172e-04 -1.948400000758345949e-02 -1.305000136655468579e-03 3.849998818423929631e-04 -1.948199999318115522e-02 -3.822200042849835389e-02 7.280997131367415200e-03 2.213200020370709523e-02 -1.318416310215066117e-09 1.768200000341610748e-02 3.419999982337865955e-03 -1.296000077143600595e-03 -4.310001178754841811e-04 -1.988099999241575017e-02 -1.000108908642024381e-06 -3.800002030388613118e-05 -2.025099999995652600e-02 1.293999922738250713e-03 -4.289999219871236413e-04 -1.987500000671417466e-02 4.199985172918656464e-05 5.079999832978203097e-04 -1.990100000073926137e-02 -4.300014822278221458e-05 5.069999768642539321e-04 -1.990600000026907651e-02 -3.000000403823549857e-04 -8.470000415888244948e-04 -1.892099999749799477e-02 2.989999596342028188e-04 -8.469999962833035497e-04 -1.891800000080438859e-02 2.527000025012764595e-03 -1.887999830195369495e-03 -2.133700001206279354e-02 -7.359895085706570249e-11 -4.740000198057296764e-04 -1.982799999952652992e-02 -2.527999975003780361e-03 -1.888000212509318657e-03 -2.133999998415992902e-02 -9.979682702415326161e-07 -2.708600000311413292e-02 -3.041999972938911820e-03
2.001180134705078841e-06 -2.245800009365320205e-02 -9.390999997757826234e-02 1.479999780138387827e-04 2.710000109235805900e-04 -2.700000010876341637e-04 5.999976113690767444e-06 2.970000001960704369e-04 -2.580000003297854439e-04 -1.670000217592695099e-04 2.679999871000494785e-04 -2.699999993458830519e-04 -2.048400076237674727e-02 1.142899846924801469e-02 1.847900010165256027e-02 2.048599923839986708e-02 1.141800156780968176e-02 1.846899987551507000e-02 -3.099997470225542999e-05 -2.980000018450986517e-04 5.000000004687807321e-04 2.700002600049614460e-05 -3.069999974545481762e-04 5.040000001576189258e-04 3.729999767129647901e-04 3.190000283619144898e-04 1.519999976224523054e-04 -7.000035857310237516e-06 3.749999981141122945e-04 -1.358000000335939659e-03 -3.790000230860938514e-04 3.169999714969505859e-04 1.610000017753813930e-04 -1.000016000001170361e-06 1.519999991092857753e-04 -8.160000001463093905e-04 -8.099998081957325276e-05 -1.380000045438294445e-04 1.584000000584953214e-03 -3.399999721029793392e-04 -3.620000256203921639e-04 9.400000223834414806e-05 3.500000271517557751e-04 -3.519999734335166027e-04 9.599999841965509801e-05 8.900002007859734901e-05 -1.489999916746991189e-04 1.595999999657565348e-03 5.001728580864908544e-06 -2.908500008487690733e-02 -8.535099997097526925e-02 3.380001858380419794e-04 -1.067999955424346874e-03 1.903399999920108929e-02 1.890952519603532567e-10 -1.060999980302144768e-03 1.972000000105980991e-02 -3.449998143187364328e-04 -1.066000007080811956e-03 1.903300000296915401e-02 -1.466999993686105052e-03 1.439999909900964220e-03 2.087400000665924626e-02 1.462000006664438507e-03 1.435000131416994335e-03 2.086899999049658325e-02 -4.249999049256797065e-04 2.279999881822868904e-04 2.034800000211819601e-02 4.340000948860659965e-04 2.310000531556703264e-04 2.035499999737364410e-02 -1.339999639000628916e-04 9.950000100158863485e-04 2.017299999974577970e-02 -5.999858961268271040e-06 -4.449999810216291249e-04 1.945400000047761702e-02 1.280000360447377996e-04 9.950000298210249974e-04 2.016299999829957584e-02 6.999887387864518863e-06 2.870000019430152087e-03 1.892199999709458583e-02 -2.328700065645598893e-02 1.139899827601331336e-02 3.725700011715468024e-02 -1.296999916751843994e-03 4.139999226382456619e-04 2.075400000674572018e-02 1.294000082919676128e-03 4.190001186052331583e-04 2.076299999243877772e-02 2.329099934321375576e-02 1.140300179871446030e-02 3.725199986004686104e-02 3.817399957267509497e-02 7.263002909182616519e-03 2.209799978203019766e-02 1.301999863567542643e-03 3.830000790234601243e-04 -1.946900000756942098e-02 -1.298000136773609908e-03 3.869998823777980111e-04 -1.947599999322179379e-02 -3.818000042789108928e-02 7.270997134516915365e-03 2.210500020348525260e-02 -6.001317185794372499e-06 1.766500000295233991e-02 3.409999982387966044e-03 -1.289000077573654963e-03 -4.240001173280926144e-04 -1.986299999246137968e-02 1.999891157596231267e-06 -3.800002006500884029e-05 -2.023899999997308408e-02 1.289999923354332454e-03 -4.369999222876468970e-04 -1.987300000668410296e-02 3.999985151168779462e-05 5.099999831345733382e-04 -1.991300000073022158e-02 -3.900014859541364910e-05 5.119999771677738497e-04 -1.990500000029615107e-02 -3.050000410464677523e-04 -8.380000419639792612e-04 -1.891799999747938513e-02 3.059999593797127666e-04 -8.439999957588861616e-04 -1.892300000084602349e-02 2.519000025110474002e-03 -1.888999830796416184e-03 -2.133300001201763815e-02 3.999926336458583903e-06 -4.730000195012109263e-04 -1.982599999954961015e-02 -2.525999975175473051e-03 -1.885000212348069424e-03 -2.132999998417395987e-02 1.002028973950053608e-06 -2.705000000296887280e-02 -3.047999972985911046e-03
1.300117584956714794e-05 -2.238200009255656570e-02 -9.364499997771491557e-02 1.569999777483089989e-04 2.740000115972607416e-04 -2.770000011403094833e-04 9.999758459366012821e-07 3.019999998378967271e-04 -2.380000003071805622e-04 -1.770000209698477855e-04 2.579999863497401324e-04 -2.639999992806957383e-04 -2.038200075872548603e-02 1.137699847691135864e-02 1.842800010114147707e-02 2.039299924134121283e-02 1.137400156070614635e-02 1.839899987607236317e-02 -2.399997475028643252e-05 -2.970000013106925034e-04 5.050000004291428559e-04 2.000002589891434885e-05 -3.049999979749701035e-04 5.130000001942601907e-04 3.629999771314027803e-04 3.150000276265883673e-04 1.729999976816463784e-04 3.999964756547082784e-06 3.689999989750125838e-04 -1.329000000390665034e-03 -3.850000236872637188e-04 3.239999710301836688e-04 1.480000018015083707e-04 -4.000015284561991742e-06 1.439999989023725622e-04 -7.960000001217588808e-04 -9.399998121263633479e-05 -1.320000055160352027e-04 1.595000000650718258e-03 -3.529999741394764402e-04 -3.350000266025866813e-04 9.500000228313260477e-05 3.640000272605051711e-04 -3.529999723686997725e-04 1.019999983433759967e-04 8.300001906228489758e-05 -1.359999921344739516e-04 1.589999999677699271e-03 1.200172353843578347e-05 -2.901300008427457749e-02 -8.527799997108584384e-02 3.410001856166710080e-04 -1.064999955196457371e-03 1.903499999918153301e-02 -8.999810530468862888e-06 -1.064999980969831474e-03 1.973300000111348138e-02 -3.479998132543929055e-04 -1.080000007306703650e-03 1.903400000299969655e-02 -1.455999991711974181e-03 1.411999910706926474e-03 2.084800000662649297e-02 1.483000008018615446e-03 1.416000132990246794e-03 2.085399999039964578e-02 -4.389999041103064535e-04 2.169999871204666660e-04 2.034500000220645921e-02 4.150000960188722195e-04 2.150000517047111995e-04 2.034099999749450216e-02 -1.449999654104435756e-04 1.013000009156983560e-03 2.014599999978851710e-02 1.500013987890294537e-05 -4.319999794653578548e-04 1.942200000034871588e-02 1.410000357847278948e-04 9.980000307982250535e-04 2.015699999822482408e-02 -1.400011218208101398e-05 2.863000017823936864e-03 1.890399999721749380e-02 -2.322100065558096657e-02 1.138399828095796457e-02 3.721000011680535707e-02 -1.304999918188818860e-03 4.329999220332035777e-04 2.075400000677089796e-02 1.312000082687265470e-03 4.220001199655789323e-04 2.076199999233642457e-02 2.321899934534689403e-02 1.137100179321713991e-02 3.719999986047625024e-02 3.809499957492084449e-02 7.229002903148892475e-03 2.203899978250022790e-02 1.311999862682058926e-03 3.950000797837581652e-04 -1.946500000763660629e-02 -1.307000136712891660e-03 3.869998817081133800e-04 -1.946499999317211418e-02 -3.809800042460693981e-02 7.223997140669652373e-03 2.205600020307956974e-02 1.998684374841738448e-06 1.764400000355238404e-02 3.404999982364783837e-03 -1.245000078073819775e-03 -4.160001139813825750e-04 -1.984399999271224679e-02 -7.000107901721518628e-06 -5.000002073968785578e-05 -2.023299999991141906e-02 1.251999922977252303e-03 -4.279999251066585208e-04 -1.981800000648334045e-02 4.099985221938269440e-05 5.039999832561519377e-04 -1.986700000072974537e-02 -3.600014819353523682e-05 5.079999774126443910e-04 -1.988700000030871329e-02 -3.050000399473574747e-04 -8.510000419430027588e-04 -1.889699999746640227e-02 2.939999600542884842e-04 -8.499999966264940509e-04 -1.888300000077379470e-02 2.518000023346674259e-03 -1.863999830849072566e-03 -2.131000001203708916e-02 1.399992496184978815e-05 -4.530000187199364689e-04 -1.980099999962478541e-02 -2.522999976157018660e-03 -1.871000212107194489e-03 -2.131599998420450823e-02 -1.997975478843145869e-06 -2.699200000320774173e-02 -3.059999973027286227e-03
