-1.603332027622765554e-01 -1.121804123721423631e-03 4.954487006616790923e-03 1.602285382526158486e-02 -5.379618035635649670e-04 3.579660094507154406e-03 8.635960109303435911e-03 2.004007670838850973e-03 1.018323252085923765e-03 8.528501754119535662e-04 -3.600949485691437579e-03 3.610085785656397435e-03 1.929317689665121019e-04 1.685024064386354999e-03 1.707983968005069271e-03 -6.881596539487198644e-04 1.938056654220030430e-03 3.957944503869481427e-03 2.086776969699557019e-02 3.366064757086364295e-03 5.720802035051968798e-03 2.070495970608520961e-02 -6.345003919147179476e-03 8.679330823256073630e-04 3.579916803986560314e-03 2.494026842392442576e-03 2.091110419361120239e-03 4.886828603913144091e-05 -2.895418737368345431e-05 3.234002403470524062e-03 -1.631256025247400832e-04 -2.495614804820612677e-05 3.083993714078473152e-03 -2.212013270339336710e-05 4.404185589559659144e-05 2.950998477576438281e-03 -5.412539509307719274e-05 -1.995630428426799585e-05 3.078998081767075640e-03 3.687293530198823826e-05 3.204421992524487207e-05 3.121001050081783756e-03 2.278749656755776768e-04 -2.695665268863655720e-05 3.070009664299800777e-03 -1.313342959479668436e-05 1.200464991578486628e-04 3.278997766249166189e-03 -4.117861804126412820e-06 -7.195898049877116865e-05 2.893000855226237223e-03 -5.126861083958211483e-06 -1.995583225044656202e-05 3.115000077055314967e-03 -9.122543104452429080e-06 -1.795733196497205958e-05 3.008999885914920899e-03 -4.612577099015434525e-05 -3.195618294686923251e-05 3.087998577658679789e-03 -9.012534021307470758e-05 5.004372389653681839e-05 3.078995623372992717e-03 -1.111223824872140315e-04 -2.095730881024317432e-05 3.004995774925115718e-03 5.874252498902780504e-06 5.004379050685947697e-05 3.088999532565403928e-03 2.087474813874066269e-05 -4.495641971764085902e-05 3.075001490278714278e-03 -2.123057568300805830e-06 5.304286103603231397e-05 3.022999164326657922e-03 1.838744128589278398e-04 -4.956419749888463927e-06 3.084007560658541449e-03 -5.712572947661744368e-05 -3.095618851180769897e-05 3.086998115552483466e-03 -2.288521900288578806e-05 -2.220400058850186366e-04 -2.822997786491829829e-03 2.411176995077720210e-04 7.295885163976283615e-05 -2.888991218566004313e-03 -1.185759289397684597e-05 1.119504579898685203e-04 -3.495002073310775077e-03 -2.078761512979669256e-04 2.095704818538384064e-05 -3.041008764843156249e-03 -8.087675450507262633e-05 -2.290429094519714614e-04 -3.031000048863493387e-03 4.128028768323931946e-06 2.109554785693036540e-04 -3.140002825705747944e-03 1.113129178982686278e-05 -4.204573199877001719e-05 -3.224998953606617470e-03 1.731126603414838373e-04 3.396064875626276147e-05 -2.765993434765445444e-03 3.551301732860318418e-04 3.795440979855295720e-05 -3.195986079881868967e-03 2.261400981498536134e-02 -8.861023547033469727e-03 -4.109535091277712266e-04 2.090903989604687291e-02 6.348971463144901899e-03 -8.572385815466602955e-04 5.295300676555631143e-03 2.907891958857772817e-03 -7.327825605217403587e-03 -3.059840094699780872e-03 -1.933053804617713934e-03 -3.964097196502706227e-03 5.750780776036081357e-04 -4.470277566115964693e-04 -1.925970246259931656e-03 -6.886119868864866726e-05 2.369952373862004979e-03 -3.363036407911905012e-03 9.837119726757312388e-03 -3.204939922612315910e-05 -2.940598972565185935e-03 2.627065557674107890e-03 -1.456025280012925287e-03 -1.637872381977826175e-03 3.792192390202695895e-03 1.438930437628687786e-03 -4.696865983967871312e-03 2.312355092738577900e-05 4.956966559452346578e-06 -3.033999131488840113e-03 6.412685319928872836e-05 9.955786054681474488e-06 -3.114997532747464191e-03 -1.787202065350290591e-05 -8.044546716089302120e-06 -3.143000616631484549e-03 6.612724162524768166e-05 3.795565688570817293e-05 -3.123997848274772792e-03 -4.087208875535744488e-05 8.955499646699216216e-06 -3.141001794234898371e-03 7.512391577968878151e-05 -4.904321592885756934e-05 -3.043996248396058698e-03 2.412475452956651717e-05 -1.804345955508604251e-05 -3.063998764651541373e-03 -1.987018664689662247e-05 -6.045183151089958843e-06 -3.188000726386881496e-03 -2.887562442622985639e-05 1.795672371803464049e-05 -3.054001433265431109e-03 -1.440052842118673122e-04 -3.999805830891923564e-05 1.289947031880596796e-04 -9.891862529364564276e-07 2.899624366430137039e-05 -2.650004516296480578e-04 -1.480023836260270466e-04 -2.799906180161513308e-05 5.799437023749511559e-05 1.900852085124043171e-05 6.499703613508473962e-05 -2.080001476650976660e-04 5.400304383175791637e-05 -1.300110561513411206e-05 -7.499761669339474225e-05 7.996526159806719401e-06 -6.799881532230354919e-05 8.400128977663843253e-05 -4.599541336984124836e-05 3.299844810141571252e-05 -1.120023409212307560e-04 1.900002527867624259e-04 1.099976616284926825e-05 -5.992418988108389998e-06 8.299672034888255659e-05 2.400108341032400303e-05 8.100303948902200734e-05 -1.540640460354634478e-01 -1.436863687693694771e-03 1.099746755211534555e-03 9.862032742236775257e-03 1.416981261802063201e-03 -7.766185001348229573e-04 1.658299471756124674e-02 -7.201116966018889149e-05 1.286762945540480491e-04 2.231269465272399735e-02 3.269089726987961346e-03 7.561862250213497415e-03 4.292090412358204148e-03 3.241966043371274225e-03 -2.157871188410094825e-03 2.091616840746727407e-02 -5.920076632181086804e-03 -4.249064346367526120e-03 1.573896115123538499e-03 -3.279965957750424245e-03 2.488110595370989463e-03 2.049572665959008960e-04 1.953015250552463111e-03 1.086980657591954174e-03 9.581322399368591121e-04 1.220953540554340971e-03 -3.223978297476798142e-03 -1.929996153301754712e-04 2.300002351578115992e-05 -9.008185204458869622e-06 -9.200468357888867959e-05 5.100171665476709379e-05 1.159955305079270335e-04 -5.999151100989939425e-06 4.399972113763396585e-05 -2.000086812810729177e-05 3.900403054724103463e-05 -1.001434138490228594e-06 -9.899839761701273682e-05 -3.700266954754405135e-05 -2.899904946952008868e-05 6.499890442322533448e-05 1.169996576811968656e-04 -2.099997818607029777e-05 8.005062065176669634e-06 -7.999979868016840587e-05 -3.000008248981907200e-06 -5.003215130150937301e-06 4.500039225819954400e-05 -7.100019118341839857e-05 -1.099716093026799770e-05 4.799685583619956331e-05 -1.099894589246359032e-05 7.700211048467265891e-05 4.188425131228627751e-02 -2.187877810367243325e-02 1.796601577143661435e-02 1.109966823505493562e-02 8.311109082850907243e-03 8.307334162333044128e-03 2.999354860749573609e-02 1.273848531128836392e-02 3.588804079221770416e-02 8.994133404907228915e-03 8.222949013745609265e-04 2.129735461013656725e-02 4.281200581438239332e-03 1.788275467553822459e-03 1.966614899856191853e-02 2.124092985849374525e-03 -2.281686491245855410e-03 2.223011886479988111e-02 -5.168842378044147083e-03 -1.026702940875561052e-03 2.066680409599250257e-02 9.802473926193043183e-04 1.450261662726767559e-03 1.851001937219105137e-02 5.290316945381065084e-04 -5.246634229170482524e-04 2.376902900328128551e-02 -7.787857399943950705e-05 -2.769405377151179574e-05 2.157499724141575745e-02 -1.038418037429930294e-04 1.792932207274887423e-04 2.067599324871229743e-02 -1.688434458933943741e-04 5.829381039066087349e-05 2.071399231733103002e-02 1.391608491536700301e-04 1.352920947293646163e-04 2.061000376776206400e-02 -8.284052430065996190e-05 -5.870730609207047143e-05 2.063999747819134090e-02 1.381205870388878092e-04 -2.146939818573085506e-04 2.159200868834556045e-02 -2.638541820620042512e-04 -2.770240063364936357e-05 2.097598966789427852e-02 -1.008465697508348119e-04 -3.070517950945326644e-05 2.078899634810013261e-02 -5.586199044934633758e-05 -1.469984136145060868e-05 2.116799795334189938e-02 6.814060537013213721e-05 -7.970086000311981051e-05 2.110300392434249009e-02 5.414040574537374147e-05 2.929925019240546763e-05 2.111000180886784747e-02 1.061419632806207008e-04 4.229867071907100231e-05 2.107200374207650675e-02 -8.860270835147135426e-06 -5.470048780343809974e-05 2.112500043437241792e-02 5.214214734027119226e-05 1.729864211440689932e-05 2.106700189759927802e-02 1.201377572439043054e-04 -2.469989410099375835e-05 2.117400526198375335e-02 -6.785704519556194441e-05 8.298452518945648930e-06 2.104699713871560976e-02 -1.186363888379625409e-05 1.230070547360651336e-05 2.120899936222162344e-02 3.413935407228283180e-05 3.829963447410073376e-05 2.113600086682678250e-02 -1.182130234786262900e-03 -4.230191142027183506e-05 -2.136004755744458361e-02 3.458939228242329943e-04 9.076887398334971191e-04 -2.193499880432485047e-02 6.708351434860052465e-04 -9.352915521185865139e-04 -2.052695944173904552e-02 1.018777400983030776e-04 2.626943894007974169e-04 -2.154999959591298239e-02 2.838612839016401508e-04 -3.300096137337164250e-06 -2.115098841380390685e-02 5.778509428901728185e-04 -5.229673935104034709e-05 -2.089797574739845828e-02 -3.280860115198535958e-04 -9.243182181183589143e-04 -2.246300027602500526e-02 -3.181467298687336472e-04 -2.012968884391855067e-04 -2.095801012073852596e-02 -2.911762488162527359e-04 9.467136811173230927e-04 -2.021102529804241765e-02 -7.000221899605320189e-04 5.976602675535074190e-04 -2.400103700130789761e-02 -5.621134769932713791e-03 1.544703577386618036e-03 -2.121825081754531717e-02 4.247489199334905153e-04 -1.997261628557594169e-03 -1.842995440423298228e-02 2.165926742929630451e-03 -1.066324651079791430e-03 -2.277889670468615652e-02 -1.242078972920399981e-04 1.715724779093368664e-03 -1.941902940109662551e-02 1.183876172503581670e-03 -8.013062024934632967e-04 -2.153194045082847813e-02 7.064452934390438865e-03 8.808491001118960717e-03 -3.551083724753598125e-02 1.011333622583484616e-02 -8.364127266278305675e-03 -8.417469599393658311e-03 -4.000194718004398443e-03 -4.372773606917913975e-04 -1.978415671005150783e-02 2.485343672295356761e-05 -4.029717120089301827e-05 -2.095899843610558172e-02 -1.021467283808118090e-04 8.702999123655843038e-06 -2.095400430236873252e-02 -5.715057495787825728e-05 3.670431077656560747e-05 -2.085900286699611875e-02 -9.814574246466077319e-05 1.970265572347357851e-05 -2.097800429541841344e-02 -3.146402746164962279e-06 -9.529722016043283203e-05 -2.096399879650777398e-02 1.385290346827070352e-05 6.703035896461646306e-06 -2.094499955040284023e-02 -2.114738622503997960e-05 5.270317671905268080e-05 -2.093700162781718735e-02 -1.701459608970402860e-04 7.027829900890363884e-07 -2.097300695794683534e-02 8.485112501317207368e-05 2.370360412501676276e-05 -2.090099690028529231e-02
-1.602442023551419736e-01 -1.121804335186034861e-03 4.944490630781835788e-03 1.604185431311233589e-02 -5.389619885739354048e-04 3.567660882392244184e-03 8.637960796854618831e-03 1.998007428250942515e-03 1.001323418610009864e-03 8.578502067257648238e-04 -3.612949503783003877e-03 3.609086159394744430e-03 1.969320093703671168e-04 1.680023976188102248e-03 1.701984201782868545e-03 -6.961598230940325071e-04 1.930056717195987584e-03 3.961944291521062728e-03 2.088776929917346425e-02 3.378064883203184699e-03 5.730802679326532645e-03 2.072795971233471618e-02 -6.337003937156897131e-03 8.679339054830753327e-04 3.577916322390300649e-03 2.503027014091071742e-03 2.103110210308391410e-03 5.086820616293959965e-05 -2.695416058428666174e-05 3.236002456554840350e-03 -1.681261733959267090e-04 -2.595594564398944929e-05 3.097993524638966659e-03 -1.812024546634915728e-05 5.604189529578831235e-05 2.953998470323892026e-03 -5.712526979377501404e-05 -1.595634446906886406e-05 3.075997902896257345e-03 3.687248972346857340e-05 3.504437588069143217e-05 3.132001007538267462e-03 2.308751324743169584e-04 -2.195671174931053534e-05 3.066009715577255618e-03 -1.213327141370696155e-05 1.140464416642759108e-04 3.274997892040316591e-03 -1.111819226648162486e-05 -7.795886159483028644e-05 2.901000655239422982e-03 8.732140841575143662e-07 -2.795586530320773091e-05 3.113000434804388122e-03 -2.312495032384242338e-05 -2.395648451249458066e-05 3.067999400834739605e-03 -3.512780312341087172e-05 -2.695548267056284886e-05 3.137998954652744792e-03 -8.712729559945692084e-05 4.904440208182658757e-05 3.126995759668688667e-03 -1.181249431928880323e-04 -1.495641012876706876e-05 3.067995404754012435e-03 1.187218591754113215e-05 6.304450887513551275e-05 3.139999592532176191e-03 2.587247246899394712e-05 -3.895562967668616768e-05 3.131001608764331923e-03 -1.212514450930271746e-05 4.004359193486795249e-05 3.073998941381662388e-03 1.888726571572194328e-04 -1.095581401906375482e-05 3.127007849289405086e-03 -5.812735752581501864e-05 -2.995562061709782352e-05 3.126998060616685039e-03 -2.688370449275289496e-05 -2.120405273324705599e-04 -2.859998091118473758e-03 2.401187245817631001e-04 8.195849797696762166e-05 -2.913991386863486448e-03 -1.085582857793647720e-05 1.289498475599579555e-04 -3.538002273571930461e-03 -2.038745224676840999e-04 2.095647794158468603e-05 -3.081008601922567876e-03 -8.387549764155847380e-05 -2.360433466139335624e-04 -3.062000071752885369e-03 2.129655252862725935e-06 2.079549130237838507e-04 -3.180002864576976333e-03 8.133034169127195190e-06 -5.304633929387324347e-05 -3.267998919773799915e-03 1.671141560475118259e-04 1.996012887722262667e-05 -2.802993480567468349e-03 3.661323283471351500e-04 3.395364976284423556e-05 -3.248985575192184054e-03 2.264000971863422071e-02 -8.880023539033863461e-03 -4.089521810099954824e-04 2.095304018419055087e-02 6.352971329448100536e-03 -8.642368465337578031e-04 5.302301202002876815e-03 2.902891769065964449e-03 -7.340825249270543050e-03 -3.066839649899028714e-03 -1.937053955092086794e-03 -3.975097424827385428e-03 5.850783704769291346e-04 -4.370278636871337361e-04 -1.932969980822547840e-03 -7.386151426476642175e-05 2.382952491198038220e-03 -3.355036795834522457e-03 9.846119521578503009e-03 -3.404933538391012289e-05 -2.935598577726646671e-03 2.646065403394296661e-03 -1.445025238179779674e-03 -1.633871764240771643e-03 3.802192475553949763e-03 1.443930401442631694e-03 -4.698865647646318505e-03 2.912334653463583792e-05 3.957032750553037956e-06 -3.028998872990617923e-03 6.712652586293347363e-05 7.955897128257535380e-06 -3.106997382236820551e-03 -2.487267531543123572e-05 -1.204431438998715467e-05 -3.127000844981262049e-03 6.612674984087359370e-05 3.395582701965577723e-05 -3.111997791574874252e-03 -4.187261890902167668e-05 7.955684741135904251e-06 -3.128001820790070938e-03 7.312341851195908117e-05 -6.004304422821197509e-05 -3.031996173893517985e-03 3.312447809553020289e-05 -7.043367358592828774e-06 -3.056998554125786496e-03 -2.087087811677392402e-05 -5.044941345673439604e-06 -3.171000781301299906e-03 -3.687598934000777375e-05 1.995685758196053669e-05 -3.045001787396133409e-03 -1.410090234794752183e-04 -3.099675630164158599e-05 2.209946976652188010e-04 1.100665629356214502e-05 2.399768040397860593e-05 -1.629998921854363856e-04 -1.460054525536016578e-04 5.002014141513380821e-06 1.339939837423534494e-04 4.003409627177172138e-06 8.999883427972256401e-05 -8.200111303908051339e-05 3.099771333866006780e-05 -7.999230315534001294e-06 5.600137571643483972e-05 3.999167643543713387e-05 -7.299715322002826444e-05 2.030026636220693033e-04 -2.499910333721126082e-05 9.997076633050958571e-07 -2.200103217859021804e-05 1.619975440780606953e-04 -1.599927617604248489e-05 6.000682356632046778e-05 8.099455274313891568e-05 1.200183640068030375e-05 1.340031281312126688e-04 -1.531940388058727343e-01 -1.407866878373053134e-03 9.227817713614045597e-04 9.793038480798151729e-03 1.412979316760055006e-03 -9.176212530314227208e-04 1.646499890720419523e-02 -7.801253757896005033e-05 2.567157465594573182e-05 2.217570569207815562e-02 3.222085977902834197e-03 7.289857338064628656e-03 4.266096738972885091e-03 3.208963851996423939e-03 -2.313871779141012022e-03 2.075317378823836323e-02 -5.913078376022407219e-03 -4.381071082987894605e-03 1.577903075274549906e-03 -3.231968371112459333e-03 2.318110077879778977e-03 2.169619886362424502e-04 1.951013596532448794e-03 9.709811747055277064e-04 9.331341890729003084e-04 1.213952879595772867e-03 -3.271979216209111758e-03 -2.119989128986626955e-04 -1.600021680367676641e-05 -2.700840595112209274e-05 -6.400380419867484694e-05 3.000138282149378025e-05 9.399696844524226620e-05 -6.997025805726393854e-06 1.998970501709953664e-06 -7.300031333362406050e-05 2.700354660855462148e-05 4.998745390403132418e-06 -8.699897134496212888e-05 -2.400268912268212399e-05 -1.999045473396662075e-06 6.599905099374664950e-05 1.139999082773130384e-04 -1.300006090466050010e-05 2.004826486093171928e-06 -8.999986992709909631e-05 1.000002793525983094e-05 -3.003806651446373264e-06 7.000163423557553995e-05 -4.500063609480429397e-05 -4.099651150295227680e-05 3.499871100841339287e-05 1.800042628277156051e-05 3.200117000029952349e-05 4.167825634472759749e-02 -2.164077962955686385e-02 1.784700400874419945e-02 1.101967316782794318e-02 8.318107429976656642e-03 8.186330805533093696e-03 2.974755844647158226e-02 1.271848207288095965e-02 3.564603105866855776e-02 8.980139624995926370e-03 7.572927289625738020e-04 2.114335496174243184e-02 4.247207583050238537e-03 1.681273027250085273e-03 1.949214913123542212e-02 2.075100121389936159e-03 -2.373688962339547993e-03 2.205311817399695576e-02 -5.082838757853600301e-03 -9.797042558639607393e-04 2.057880693171261835e-02 9.582515062259654680e-04 1.451260247995250644e-03 1.840901846224845054e-02 4.860352717391038793e-04 -5.326646368933990981e-04 2.368102736578860112e-02 -1.188729498380342308e-04 -1.256960065501407304e-04 2.143499696141182298e-02 -6.983638008871755293e-05 1.372912942852748570e-04 2.054199522881186915e-02 -1.598371013105333890e-04 -3.708422563926244229e-06 2.055699356298596944e-02 9.116410921140264030e-05 1.382909980892485708e-04 2.053000177070228929e-02 -2.783639662855823626e-05 1.229123305644701465e-05 2.053999871130990709e-02 1.231257194692985345e-04 -1.606957423422304438e-04 2.146700731204976773e-02 -3.288491686433309439e-04 -2.170409360833376906e-05 2.085298693608671552e-02 -4.984131991408536825e-05 1.729296579509733507e-05 2.066099774444988407e-02 -4.585480713475510782e-05 6.297655514486866126e-06 2.099199806298098978e-02 3.414802207622821427e-05 -7.270341374071228897e-05 2.092100244075839263e-02 3.814553188304466218e-05 2.329747631873306635e-05 2.098400124251794188e-02 1.541478278253446369e-04 4.329659153262241166e-05 2.092800568263345623e-02 -8.507351130582867331e-07 -4.570381167242963905e-05 2.089100063275687799e-02 2.214925786566676125e-05 4.929619866467241048e-05 2.089300022244706609e-02 1.381447455669686339e-04 7.297667398842358308e-06 2.100300554142960768e-02 -4.984892533326697466e-05 -2.270439713093264618e-05 2.084699831138751847e-02 1.143986847551174939e-06 -2.570197012704096283e-05 2.102100043052246639e-02 2.414676292273844476e-05 3.529706194560861340e-05 2.095400050232075137e-02 -1.144142205936188577e-03 1.070224127016338227e-05 -2.106504676174793603e-02 3.648779015211411013e-04 9.366943110050197658e-04 -2.154099844215008261e-02 6.288194714824499494e-04 -9.282860607822388975e-04 -2.014196125161702919e-02 1.468663256636197688e-04 1.946983097777319339e-04 -2.127099679964612744e-02 2.918486572753261677e-04 -5.929572145689373196e-05 -2.084198729436959052e-02 5.248385261622588553e-04 -1.522924019701678972e-04 -2.059497648810888759e-02 -3.030971627571826246e-04 -8.643143388055865919e-04 -2.218800010892517383e-02 -2.941608106549935069e-04 -1.382919875424533515e-04 -2.061101003695976763e-02 -3.501875855909032014e-04 9.777176829158771860e-04 -1.993202814034265510e-02 -7.230334962806188011e-04 5.116641986426089797e-04 -2.372503671885638210e-02 -5.581143855439634274e-03 1.486706693543189640e-03 -2.099624836660736113e-02 4.517395133970540828e-04 -1.997258374627761124e-03 -1.819895330498474267e-02 2.072917088274796402e-03 -1.019321203950590473e-03 -2.254090115830143307e-02 -8.021730303402144094e-05 1.768728033884719043e-03 -1.918702836101630893e-02 1.214865007181935037e-03 -7.073023137043000976e-04 -2.125594052144843052e-02 6.966437343825048097e-03 8.711496479602393386e-03 -3.512983986329051150e-02 1.005832943022660214e-02 -8.306124841349741411e-03 -8.249472661506924639e-03 -3.923206898300867981e-03 -4.432731818210769621e-04 -1.948515348975734043e-02 8.505518318062589261e-07 -3.229614578632097351e-05 -2.088799952689411946e-02 -1.061488012224673610e-04 1.370372532269993290e-05 -2.090300453618836388e-02 -2.615130874228334732e-05 3.570454170410212991e-05 -2.084100159048870443e-02 -8.114952638258768303e-05 2.370396094710445809e-05 -2.088500365996145275e-02 8.495048185869515708e-07 -6.929579133770686261e-05 -2.086299900234010740e-02 1.084955341683046822e-05 4.470421499863442606e-05 -2.086200021139756125e-02 -2.814972846359897982e-05 2.570399033708338772e-05 -2.088000153011651885e-02 -1.671483524840416490e-04 -3.729639704293752584e-05 -2.091500629708318779e-02 9.784854470157291139e-05 4.704487149090036521e-06 -2.083799610159528526e-02