-3.279718424659767558e-06 -1.644879474665146835e-01 3.706331946351406736e-03 -4.481771932509907679e-03 -3.967076977555587629e-03 -5.677126262389699599e-03 4.480228392092316242e-03 -3.959084108190305540e-03 -5.684761435536664007e-03 -1.666170392637493719e-03 4.862061956590014652e-03 4.277863222799239799e-03 1.655829527866999832e-03 4.868059383831770288e-03 4.279998412398209467e-03 5.201234873734935803e-06 5.550931445884833663e-03 -4.835078492666142723e-03 -4.565135523057519719e-03 4.771052061956622577e-03 3.419746464025924006e-03 -1.141566636493787489e-06 -1.325951071511529246e-03 3.451018755785462567e-03 4.562864550029821845e-03 4.770044886412220728e-03 3.418118178134539175e-03 -2.124014520531731772e-06 2.704318712794676950e-05 3.045999532927127530e-03 1.718696587420359668e-04 6.004526261936552275e-05 3.202006150344010108e-03 -1.761302618783732712e-04 5.704550674673950053e-05 3.199992022022971148e-03 1.818750667697285970e-04 5.004336914362877259e-05 3.069006699453792619e-03 -1.831247269726198556e-04 5.304358404794643319e-05 3.063991793814492288e-03 -8.129899473001123134e-06 4.523343117791976740e-08 3.189999671267772490e-03 -1.912390098820157411e-05 -3.595685626594890524e-05 3.041999733875475238e-03 -1.125165774835541442e-06 -1.949564733655805200e-04 3.070002721089157630e-03 1.287634174315071700e-05 -3.795696638839645776e-05 3.036001065303815718e-03 4.870939248776322099e-06 8.304495386574863491e-05 3.170999023902131442e-03 2.786756326788397423e-05 -1.595391573175819130e-05 3.252001364004992838e-03 -4.013296212876953279e-05 -1.095367817718392365e-05 3.264998524086214823e-03 8.869328359104515397e-06 -4.995452467439961952e-05 3.208001072393681583e-03 -2.013080161509778917e-05 -5.995445943311689195e-05 3.211000033263845116e-03 8.688506856883991325e-07 -3.595434827829737106e-05 3.220000548127029214e-03 2.587253745563074315e-05 -5.995565803015985259e-05 3.129001906499223520e-03 -8.130358272344796988e-06 1.940454460785509452e-04 3.204996920767715432e-03 -2.712807409658471149e-05 -6.095540386433232540e-05 3.143999762457934215e-03 2.213636618925382570e-05 -1.140475270066850779e-04 -3.350997484761155786e-03 8.113597007692482008e-06 -7.003957648377118596e-05 -2.790998679195239376e-03 -2.086404098348208262e-05 -1.140473515598967413e-04 -3.340999235767049859e-03 -8.933293955496521684e-07 2.896286913401635216e-05 -2.619000449441373241e-03 -3.778793624934088436e-04 2.879583722026241867e-04 -2.957019472928778137e-03 3.891204324826677487e-04 2.869578425336501712e-04 -2.951988225862856637e-03 -4.786881063449611659e-05 1.909544134190816443e-04 -3.218004659562228188e-03 5.413094887373244053e-05 1.959544186197418453e-04 -3.212000576929809059e-03 1.127934517161820764e-06 -3.770446466225890140e-04 -3.148994611335016475e-03 -1.936788139791344133e-03 -3.790723496120808138e-04 -5.210073498073051514e-03 -1.562816286070672500e-06 5.046849163492328136e-03 -1.063907162672392270e-02 1.942211773982585599e-03 -3.810753584983772851e-04 -5.207915513537901900e-03 6.912738200150563899e-06 2.914031171197265652e-03 2.198958968999027708e-03 4.014398037381056335e-03 -1.670142184417341968e-03 -9.806812860522056211e-03 -4.012601914456935710e-03 -1.669135913485094184e-03 -9.808139740970804252e-03 -1.020890933605922814e-03 5.389629730267088284e-04 -2.668049215323330375e-03 1.025109099149377036e-03 5.309613568395848320e-04 -2.668965787038908143e-03 2.163997234318272498e-06 -9.690573648283455415e-04 -4.045986176544343060e-03 -1.687832768309315031e-05 -2.042349941409028099e-06 -2.988000661121302439e-03 -1.877878199147050911e-06 -4.251764230198539304e-08 -2.999000078653836412e-03 2.612192130772363638e-05 3.957531322379218900e-06 -2.993998995185707165e-03 3.120118664791837250e-06 4.195818732825131364e-05 -2.949000470562126389e-03 4.121246310306962295e-06 2.595778956859797154e-05 -2.977000202971031087e-03 4.121208723760899876e-06 2.995780374599008670e-05 -2.976000259683014588e-03 2.612126820713648207e-05 1.957758167306652711e-06 -2.977998966845054035e-03 -2.587836604574809678e-05 9.576712830493041672e-07 -2.987001070143182040e-03 8.119157031954306919e-06 6.195852367834301820e-05 -2.925000550535450643e-03 -1.039931063631594827e-04 -3.700232878988150625e-05 -1.700037102332361335e-04 8.800407903819399205e-05 -4.300150085665851941e-05 -1.009958068273832154e-04 3.999768233799442908e-06 6.800009610572774557e-05 6.999198788981507995e-06 1.000726233060684175e-05 -1.380025739970102935e-04 -1.809976360918730644e-04 1.601716150754591269e-05 7.499403279044808499e-05 -4.200004114082108472e-04 -9.994428338748459131e-06 -1.130019628722022290e-04 -1.389988049920251731e-04 -1.198721205415533152e-05 5.399557174056136236e-05 -3.130012539584763531e-04 -1.999875871891184561e-05 1.289996186686482693e-04 -2.800264332248084495e-05 4.800241899475532617e-05 1.249991542692473743e-04 -5.699981756659269408e-05 9.420813413099511082e-04 -2.830291356779617755e-04 -2.002957626789201358e-03 -9.149180886252397671e-04 -2.850278801430336842e-04 -2.017033217041183744e-03 -3.376512255371746533e-05 2.364492469761141427e-02 -5.313336612787163994e-03 6.352955835301475965e-03 1.624301483036806257e-02 1.397028408856497298e-03 -5.394294509547309124e-06 -1.609425965944110120e-03 1.815540227672240992e-01 -6.359043532397541838e-03 1.620502455697430191e-02 1.380511304166988102e-03 2.596595905491568327e-05 3.536012796012638886e-03 9.039509253301520643e-04 -4.269138310392189503e-04 3.679704333318389604e-04 -2.109022603259859928e-03 4.020862410955800903e-04 3.569697558735438273e-04 -2.110988689717026821e-03 1.400183480189068888e-05 5.499936520951321145e-05 -4.400020964417273456e-05 -4.199559582087474826e-05 5.999851585568599795e-05 -1.070025608420879028e-04 2.901903230468377728e-05 7.199337043321379350e-05 -4.659998394610944230e-04 1.100021886226899446e-04 -6.500086590176937565e-05 -5.499459910062389650e-05 -8.980518975966727746e-06 2.099323005866474256e-05 -4.780006637763448336e-04 -1.059962457840489899e-04 -4.200123553314216382e-05 -9.300372085770008718e-05 -2.199203123428675888e-05 -1.600276162036277534e-05 -1.960006688323078091e-04 2.300058882848501126e-05 -8.000024484557248007e-05 -1.599792918447336495e-05 -9.997721541550785408e-07 -7.300009845421214850e-05 -6.999005737610821912e-06 -1.252716766609250805e-02 1.766142117476188211e-02 2.901423951016602124e-02 2.998520755659801580e-05 -1.586399919957847890e-02 5.822613761126044815e-05 1.249383335230757307e-02 1.763640121479490702e-02 2.898925874105006892e-02 -8.076631517108311557e-06 4.158103802691929390e-02 2.681410146157278511e-03 -1.204594412450553549e-02 9.037992446061715243e-03 -1.198618660885108610e-03 1.204905302226490400e-02 9.007974558040242677e-03 -1.128637066708691782e-03 -5.508462562321571462e-04 1.408295456249656491e-03 2.080895762189691189e-02 5.801549863950494507e-04 1.436294145344320415e-03 2.077900328023003437e-02 -2.889194836621140989e-05 3.483311521914691372e-03 2.197094945824180565e-02 5.214120216662388997e-05 5.829898237736234911e-05 2.109100131628866698e-02 1.914276379016256686e-05 2.842985261484097742e-04 2.105699676835764284e-02 -5.785733962763655951e-05 4.829855810731453818e-05 2.105499697880614668e-02 4.122513741552963965e-06 1.653055559140534554e-04 2.155199784423858164e-02 2.471481236392127317e-04 -2.027036513947648292e-04 2.091601295741358016e-02 -2.328501007007579757e-04 -2.237038993774889152e-04 2.087199370917898131e-02 2.201345863954765048e-04 -6.969888070582986109e-05 2.125100997199664415e-02 -1.948654876498410928e-04 -6.069852740774173404e-05 2.125299294524170268e-02 -8.881506715741096562e-06 2.330692717567357542e-05 2.164799932802068463e-02 3.014488584125409103e-05 3.029770942672244344e-05 2.100000081749191574e-02 -2.986131704737555364e-05 -9.070011691200553067e-05 2.115000008961078620e-02 -1.685560433699121710e-05 2.829791636128775752e-05 2.101199893195628346e-02 2.139820808846137553e-06 1.029948939925608136e-05 2.112399996074808273e-02 -2.485711335215689733e-05 2.529844720398787857e-05 2.104899864868836970e-02 3.214245669351737923e-05 4.829855852663731780e-05 2.106000064367809579e-02 -3.685479144576863931e-05 7.829766263805839634e-05 2.099299740866875097e-02 -2.085599430345701585e-05 5.029806126900816245e-05 2.102199845715278445e-02 3.514222490316489509e-05 6.429864124280805244e-05 2.106600053899086028e-02 -4.615184638201408183e-05 -9.102955134295838803e-04 -2.084598899273683997e-02 -7.071750744599827670e-04 -3.612867586253643471e-04 -2.026502369335166434e-02 7.468239188252635699e-04 -3.972875568310570865e-04 -2.024096397485696669e-02 -1.219113099751350593e-03 2.586922337351659157e-04 -2.177505333123709585e-02 1.221886137065299150e-03 2.746905918180482498e-04 -2.175595415850139699e-02 6.856382308851317978e-06 7.047020205058022188e-04 -2.101700973146077012e-02 5.998441670572166777e-04 5.507057670098294225e-04 -2.071998340089657026e-02 5.184991347689068468e-05 -2.232960155663255702e-04 -2.087599474218904128e-02 -6.251568898850349935e-04 5.517070948026991332e-04 -2.069403329814112347e-02 -1.913678970518978845e-05 -5.593006811455818747e-04 -2.120899286933139102e-02 1.502965150139009935e-02 7.169415180100164112e-03 -4.041848966404004012e-02 -1.500634877676611245e-02 7.146438797419589310e-03 -4.041271242944212416e-02 -6.250768523687011370e-04 -1.240321260607373096e-03 -2.269400788972979199e-02 6.269251168646803327e-04 -1.220322921454753892e-03 -2.274195719073484126e-02 -5.290363961516371846e-06 -1.354859893411835235e-02 -4.224480816543561834e-02 9.499039146255291652e-04 9.796848075144918861e-04 -2.217897522950292716e-02 1.089088468556962332e-05 8.756900512972923007e-04 -2.186101199219033300e-02 -9.450972881893413089e-04 1.001686716623850434e-03 -2.214905270745447241e-02 3.885598645279294470e-05 -6.029807536193085223e-05 -2.102199758239983035e-02 4.485195354248976081e-05 -1.029666228541203951e-05 -2.092199804705585642e-02 -9.114586384941312646e-05 2.070269277578575917e-05 -2.097500402455301088e-02 2.085893328108053951e-05 1.070093210137155162e-05 -2.109299932193035854e-02 -6.114122485780910607e-05 -3.529896115492024098e-05 -2.109000200886581786e-02 9.855588621364642010e-06 -1.522979392234047747e-04 -2.101399745895771512e-02 9.853835349467643298e-06 7.027129397577846766e-07 -2.096799962819828611e-02 -2.514300962741056953e-05 -1.822984080383526807e-04 -2.104899845882205953e-02 8.856068727909773060e-06 -7.298066055184544609e-06 -2.102299955544589816e-02
-2.279181118908877824e-06 -1.642699475949198351e-01 3.697328896328188480e-03 -4.478771805648434565e-03 -3.961077022438566110e-03 -5.680126225290939301e-03 4.475228187708690103e-03 -3.960084033386246892e-03 -5.679761624967804255e-03 -1.659170435714860201e-03 4.859061965287138872e-03 4.278863550377558569e-03 1.652829686051407281e-03 4.862059329470181344e-03 4.275998375305956056e-03 -7.989303553691702957e-07 5.547931507294294982e-03 -4.831078694461677335e-03 -4.563135727446953650e-03 4.770052131279707043e-03 3.424746559640741948e-03 -1.141771807840818825e-06 -1.327951000622350870e-03 3.456018784136341299e-03 4.556864386367864665e-03 4.769044947821480217e-03 3.422117947983477869e-03 -4.123969880165484652e-06 3.204317451563966243e-05 3.044999380597537483e-03 1.698694997782021227e-04 6.504532089603521966e-05 3.206005998009772099e-03 -1.741304599992176869e-04 6.404557606901832133e-05 3.204992004215681013e-03 1.828751466434322469e-04 4.804334000524351073e-05 3.067006768532029408e-03 -1.881248107608733309e-04 5.004361631882037583e-05 3.065991632741668204e-03 -3.129781232495524631e-06 -4.954813016684892389e-06 3.186999945763633896e-03 -1.912373888841501480e-05 -3.695691297702954464e-05 3.037999748056957085e-03 -1.125412450596070966e-06 -1.979563882985058978e-04 3.076002763616870680e-03 1.287626186861766831e-05 -3.595693803300734781e-05 3.038001036946429232e-03 -5.129680958411694382e-06 7.104517436385037940e-05 3.185998786812837755e-03 3.686694931352524579e-05 -1.995371011138990028e-05 3.267001787189762439e-03 -3.913301146974730452e-05 -2.195366478127578843e-05 3.265998720761534215e-03 2.868841281147753562e-06 -4.795434984307994950e-05 3.220000799701893020e-03 -7.131198647824768977e-06 -4.695432783542383815e-05 3.221000378314688509e-03 -4.131346645776759976e-06 -2.795427347514626966e-05 3.225000231096017758e-03 1.987212790148657062e-05 -6.295551155392684593e-05 3.139001704698111267e-03 -1.130678559856278813e-06 2.010455540192350942e-04 3.212997106561892545e-03 -2.712778905070463019e-05 -6.095550310889986587e-05 3.136999762464441101e-03 2.213665280228088275e-05 -1.120476262514542382e-04 -3.357997513110175594e-03 1.114491304831559867e-06 -7.203988291409446198e-05 -2.812998935865218802e-03 -1.586326650809538128e-05 -1.130476248530902126e-04 -3.359999046322895404e-03 6.106795111885042991e-06 3.196282111935473745e-05 -2.622000206925917572e-03 -3.848790351537359055e-04 2.899582642610328063e-04 -2.965019786322826457e-03 3.871210049268071539e-04 2.899576456102050288e-04 -2.965988349824834596e-03 -4.986840264086371565e-05 1.919542732070195201e-04 -3.228004755172397735e-03 5.513163642574231117e-05 1.899541768148294246e-04 -3.229000451126574130e-03 2.128503824519093060e-06 -3.780448458946194471e-04 -3.162994556423387536e-03 -1.932787490611942395e-03 -3.820725795884888126e-04 -5.226073292641482577e-03 2.437948787263585678e-06 5.035848890983339946e-03 -1.065807130786745882e-02 1.938212509311743959e-03 -3.780756105670116780e-04 -5.225915718937863483e-03 -2.086486529277644694e-06 2.916030908865917867e-03 2.179958574173503083e-03 4.011398652897586042e-03 -1.664142394735888472e-03 -9.821813067737245051e-03 -4.000601419548220281e-03 -1.661136093015398892e-03 -9.820139365731542572e-03 -1.019890288341899695e-03 5.309627453997932704e-04 -2.684049061165497997e-03 1.022109793756865786e-03 5.339611181657496521e-04 -2.685965951718949103e-03 5.164728639803303275e-06 -9.710576223774489450e-04 -4.063986026009529934e-03 -1.387800270243474538e-05 -3.042465712659590289e-06 -2.996000524773548366e-03 2.122121797535348705e-06 -4.252077428660912369e-08 -2.998999915770432165e-03 1.912199727019505273e-05 -3.042491551532735909e-06 -2.995999180985461485e-03 3.120483585204965544e-06 3.995805972829467000e-05 -2.958000442198233451e-03 5.121406058543660003e-06 2.195773207482360989e-05 -2.981000105535407813e-03 1.214475671041584844e-07 2.295772181190821164e-05 -2.982000323316497115e-03 3.012147650945986240e-05 7.957684145740344527e-06 -2.982998889023582342e-03 -2.387852266217904709e-05 8.957726427431954674e-06 -2.983001102127306060e-03 2.119242396478164101e-06 6.695850002022518102e-05 -2.927000865747515258e-03 -1.009946600261559923e-04 -4.500179238183967922e-05 -1.320034746838997749e-04 9.800521686269984334e-05 -4.600190566458780802e-05 -1.289953570595528713e-04 -2.000601383078207818e-06 6.400022840426618708e-05 1.599901116656229065e-05 7.005521523429882276e-06 -1.250019620041317823e-04 -1.379979426053241985e-04 8.016305592967386772e-06 7.399433678822077561e-05 -3.990007230167778992e-04 -7.994432258274694457e-06 -1.180019644376904868e-04 -1.389986526615056097e-04 -3.987866728524663196e-06 4.999579232172117693e-05 -2.970008714954871132e-04 -2.099798345497524819e-05 1.309993500733309165e-04 -4.700271238119652149e-05 3.200197342950606962e-05 1.279993227526324327e-04 -4.600051164372654533e-05 9.000821369558224079e-04 -3.070293863456109978e-04 -2.022958996780033127e-03 -8.959176587339483374e-04 -3.080280509733909398e-04 -2.028032117246226975e-03 -6.767655178870796726e-06 2.347892551297717928e-02 -5.254333159870294007e-03 6.316957346653892871e-03 1.614501430563178644e-02 1.358028332362931287e-03 -6.355095202701880831e-06 -1.576439604203580189e-03 1.805920222595313318e-01 -6.318042118980730926e-03 1.613802401447758314e-02 1.344513923665501594e-03 6.966448504327907307e-06 3.537012640755920947e-03 8.919501374673725240e-04 -3.899156830720630607e-04 3.949710565368459887e-04 -2.063021479430743755e-03 3.830845598282772214e-04 3.939703662141460280e-04 -2.068989988029489632e-03 -9.000344540037862620e-06 2.800013464430095049e-05 8.999236526596483883e-06 1.000469868468363859e-06 2.799984325843212740e-05 -1.100035624630038293e-05 9.016566347239967182e-06 4.299423676378223366e-05 -4.060002427787520740e-04 9.200017296852925654e-05 -3.900014292069151620e-05 -4.995700744274057966e-06 -3.983301293002464838e-06 5.599420440803562271e-05 -4.090009564579528988e-04 -9.099941418627601614e-05 -3.200014141105428551e-05 -1.500325189507668664e-05 -5.994524621679700960e-06 -2.800190930157437993e-05 -1.349998472222338421e-04 2.699893807649063327e-05 -5.599966669036668762e-05 2.500189339449435282e-05 -2.300122554897289276e-05 -5.699957082927662962e-05 2.899987152598359488e-05 -1.244915948053475045e-02 1.755841823560610679e-02 2.881124414689075625e-02 1.988610158154603956e-06 -1.578300034024197190e-02 -2.377615089518458940e-05 1.244484029756468685e-02 1.756139881458847543e-02 2.881725780922051242e-02 -7.076644155038776654e-06 4.135703796944769500e-02 2.677413362700864583e-03 -1.196494348873572942e-02 8.965992141623763817e-03 -1.215614341681395261e-03 1.197305559555160957e-02 8.965973710173281638e-03 -1.192639565967816779e-03 -5.778404934148375629e-04 1.435293478318684602e-03 2.066795613976538798e-02 5.781596348410574003e-04 1.444292530640834890e-03 2.066500308547220000e-02 1.113429110508548985e-06 3.486309626955516085e-03 2.183895063745675685e-02 2.614385293567514937e-05 1.129806700550656714e-05 2.102500092396277290e-02 1.144336246382467539e-06 2.642979873103376326e-04 2.101799631897384793e-02 -2.085582909435782753e-05 1.297990384971105230e-06 2.101699915186784617e-02 1.312337592388998473e-05 1.743052511324781270e-04 2.153099808314589206e-02 2.491502004253758518e-04 -1.507043618557675035e-04 2.086601230165806287e-02 -2.508488696327652347e-04 -1.597042964460756011e-04 2.084299206885375719e-02 1.631366256190468341e-04 -6.569954496522039332e-05 2.120100759424355802e-02 -1.518635832089066165e-04 -7.269922743174877058e-05 2.120599486641515027e-02 -5.877314822428585350e-06 2.030546451406513138e-05 2.154499949281227927e-02 -1.849385814512783610e-06 1.329573541516701527e-05 2.085899975557772845e-02 2.144222527472167320e-06 -8.870207014825353092e-05 2.101400136444892333e-02 -4.849348225478520480e-06 9.295723586763366002e-06 2.085799969012716235e-02 -1.852026400525626995e-06 2.129665697105913183e-05 2.092399964209520208e-02 -2.385141789541779671e-05 7.029647570289971204e-05 2.090999805153908112e-02 3.014861729562020199e-05 6.329641924401760650e-05 2.090900034971031329e-02 -4.384927769649939454e-05 4.729573994198724667e-05 2.085699756325988530e-02 2.815080211831684555e-05 4.529565521087492130e-05 2.085500052351854997e-02 3.148167821626902044e-06 6.129659634086444297e-05 2.091999927859263669e-02 -8.157106454054142470e-06 -9.192937142469287002e-04 -2.071698731786454292e-02 -7.181816853312640971e-04 -3.792844532077431128e-04 -2.010302388623188066e-02 7.228176173014228163e-04 -3.842853404821786360e-04 -2.008596513661240965e-02 -1.221117894622358044e-03 2.716939082797005718e-04 -2.165705359709941408e-02 1.214882014863382037e-03 2.626920292575627607e-04 -2.165495427350808480e-02 7.850767533541268598e-06 7.107039762579613279e-04 -2.087900977593478563e-02 5.988380652006321941e-04 5.587078944613237770e-04 -2.056998355517897226e-02 5.844310494164743936e-06 -2.022940230148593307e-04 -2.073799691320951308e-02 -5.951616103930644107e-04 5.557087159366733619e-04 -2.057803213333447498e-02 1.856788113292003097e-06 -5.962984716708989415e-04 -2.105199148976221943e-02 1.490764271595131606e-02 7.130418323855630160e-03 -4.020349407925096624e-02 -1.491035743630531388e-02 7.112441727948004555e-03 -4.020070803839354001e-02 -6.460821483862243947e-04 -1.191319386878200845e-03 -2.256300943969985484e-02 6.599182624404200965e-04 -1.185320551249739339e-03 -2.257295634332558143e-02 -1.430074455901677178e-05 -1.338859526921631384e-02 -4.198681080060526899e-02 8.898958292253397913e-04 9.506876617006666721e-04 -2.198097726178291356e-02 4.884825096137878957e-06 8.336921543132169623e-04 -2.171301164118695851e-02 -8.901044136233680470e-04 9.506891405005965133e-04 -2.197504974490347915e-02 8.851104678314502568e-06 -5.429635053720745230e-05 -2.090199888920349705e-02 4.884814066810734074e-05 8.704667293452063713e-06 -2.082799815363734278e-02 -5.815095633250521516e-05 1.770443916163545462e-05 -2.085000263834783235e-02 2.985367009879913566e-05 -2.297246008681446720e-06 -2.096399877125168856e-02 -5.014605654257108501e-05 -1.729728261204433921e-05 -2.097100181624681967e-02 5.850888514445534049e-06 -1.222962914701823634e-04 -2.089799804728185301e-02 -1.114943640463863389e-05 -1.729613639187927850e-05 -2.088800022821078392e-02 -3.147181977102223609e-06 -2.062969791267215596e-04 -2.094699722279183204e-02 1.385154244193361197e-05 -1.529649623407351705e-05 -2.091199923852272297e-02