1.546682712654500087e-02 -8.927561681834337778e-03 1.023037564904369229e-01 -1.441021180935194747e-02 -7.709265239186005071e-03 -1.950447751367598639e-02 -4.501930036464162760e-04 4.840676826496573141e-04 4.748974809164816305e-03 -6.391931422571108532e-04 1.510677881361149465e-04 4.745971834121978823e-03 9.898036878862564569e-04 -1.709932891709607574e-03 4.788064553167216755e-03 -3.501466416232535696e-04 2.000513849807766949e-04 3.604982908798213832e-03 -5.251929814108153086e-04 1.633372388648856102e-02 -1.950425298062527513e-02 -1.435148189382646090e-03 8.220529433586693750e-04 3.654929908059395376e-03 1.977804816321110642e-03 -8.933594592313216876e-06 4.793080668987815575e-03 -2.811474268462052425e-05 1.103997495011699404e-05 2.817998701241162304e-03 4.487203627759753704e-05 -2.395548859937630398e-05 3.142002169783825096e-03 -2.411795030636113598e-05 -1.329589506549031831e-04 2.894000905651856331e-03 9.688231204043698552e-05 9.804092622368378604e-05 2.892002557813340077e-03 -1.612159554929754721e-05 -3.957652574703683148e-06 2.985999402401654998e-03 -8.812170744066413330e-05 6.104246050564825189e-05 2.989995548942031220e-03 3.987230957402230114e-05 -3.895558392745089598e-05 3.135002178852529155e-03 -4.912084374104344012e-05 2.004211806143344805e-05 2.967997718363978108e-03 1.878542269763026983e-06 1.604229079596318941e-05 2.982999851824494689e-03 -2.951052497310631818e-04 1.730369231008256246e-04 2.587985532190039979e-03 2.848815045448522534e-04 1.590410767479595881e-04 2.913009348470256814e-03 1.868640837052362943e-06 8.045736001042944933e-06 3.225999965020710271e-03 -2.131364644644446496e-06 1.045739133733248441e-06 3.225999901381650103e-03 -2.212346260924300128e-05 -3.599570949068187282e-04 3.025004205324088435e-03 1.286936361659383375e-05 -4.954527810920760004e-06 3.208000597277730227e-03 4.881365151115668994e-06 -3.309587890304913462e-04 2.907004893741620567e-03 -3.171269539205424774e-04 1.730444970916696578e-04 3.120984635835839533e-03 3.028771709072464245e-04 1.890425796751083127e-04 3.020009656013206145e-03 -4.447144688937179320e-04 2.549010045954724175e-04 -7.007021729594734884e-03 6.151371977117276076e-04 -9.750485158150352764e-04 -3.387961130207703224e-03 -1.658440165962393362e-04 -5.430543268798875868e-04 -3.840999057565134839e-03 3.821564156816648484e-04 4.249453573629962690e-04 -3.832990466621196204e-03 -4.238703691184259482e-04 9.039554449991165632e-04 -3.166030079395939275e-03 5.413114454227235074e-05 -2.204570895843950104e-05 -3.220997486169006711e-03 1.154137675394395967e-03 -5.304885287613935233e-05 -3.381952253572445728e-03 -1.508499223978531582e-04 7.894788722633733528e-05 -3.684007265467192059e-03 -9.888711005324331803e-04 -8.204412668645055784e-05 -3.167039107401111841e-03 -4.246414961345692726e-03 2.440800299108991829e-03 -1.432020753606346591e-02 -2.890904212240379820e-05 -1.575032075663035814e-03 -2.263978848822610548e-03 4.272402812032394248e-03 6.818565925312751290e-04 -9.878835700575213166e-03 1.538399157337527745e-03 -4.037141280459300048e-03 -9.879880126515432417e-03 -2.702772953142198835e-03 1.889231177437922758e-04 -5.572112742878140672e-03 1.140336775748090805e-03 -6.561183272284789279e-04 -8.282944269917030117e-03 1.343092748038613414e-03 8.149668781808895287e-04 -2.261956864671424601e-03 1.751426903297331674e-04 -9.804984436499121123e-05 -3.505991481171063032e-03 -1.510771537305072559e-03 2.256922255092872788e-03 -5.567093523243108084e-03 -4.187432056499379955e-05 1.895628020743223496e-05 -3.086001976784512324e-03 2.712444364825447899e-05 9.566515163729775913e-07 -3.055998911873930839e-03 2.212336923909144539e-05 -1.904297594395057099e-05 -3.029998831947086635e-03 2.312366447059745667e-05 -6.043075972824817264e-06 -3.036998975530653174e-03 2.512457759101693780e-05 6.795662472002019232e-05 -3.057999943223926095e-03 -3.687402768752584889e-05 2.895617704687579544e-05 -3.093001914951383925e-03 6.124584608974291019e-06 -2.704338874906647841e-05 -3.059999370030708210e-03 4.412308182424410090e-05 -2.204289392499602423e-05 -3.022997893561578820e-03 -4.287559547236186139e-05 -4.904329366885552751e-05 -3.056001053445335427e-03 -4.370018789398739663e-04 2.520010652114791356e-04 5.097863214425877855e-05 1.239898485294826751e-04 -2.749966376817315913e-04 2.440089480436699208e-04 2.909933765409146835e-04 3.820021823348204119e-04 1.700064337039987653e-04 -1.840058717089187502e-04 -4.779979418781454348e-04 1.349992842088360847e-04 -1.160072114353203585e-04 -5.699741387471573872e-05 1.759960843501787923e-04 3.089865735201886149e-04 -1.929956199650671625e-04 3.260153187482951482e-04 2.979909965543100863e-04 4.700291413297802174e-05 2.220114682523789413e-04 -2.790087311670512438e-04 1.860033091965657452e-04 2.179860016158811312e-04 -1.100920752721614277e-05 1.500032553129741384e-04 2.289974251932396019e-04 -1.420515407383087479e-02 8.184718832989039405e-03 -2.061669450624033922e-02 1.605988602917346290e-03 1.255003052431445665e-03 3.040476043111440922e-04 1.260016440401650652e-02 9.148587215342679144e-03 -2.841861664393648471e-02 -1.622858900860762749e-03 -1.546340024202007973e-02 -2.831984687357949615e-02 -2.770987792885250441e-03 -2.613002792282608563e-03 -3.500757906571449378e-04 4.500326433645075383e-03 -2.574117881320612741e-03 -8.065780255108670124e-03 -2.850154801421110823e-04 -2.034994942012725242e-03 3.410172459890944280e-04 -6.090097159543003853e-04 3.320039503710535411e-04 2.449704937564472487e-04 8.940196417978246496e-04 3.708993472553632782e-03 -4.110161805017366549e-04 8.799441803763728719e-05 -3.998126545293714539e-06 1.370036400185971370e-04 -8.300454031731170558e-05 -2.599836127341264183e-05 1.109969886880220424e-04 -6.006678212785466963e-06 2.329856416503697216e-09 1.639997555224391662e-04 3.799394353334992116e-05 1.400208273624383474e-05 1.490013487651437236e-04 -3.800220283669216467e-05 -5.699921881724557399e-05 5.299926069090648238e-05 -2.003667224662686056e-06 -2.998722432122563797e-06 8.999996100792432413e-05 7.995325741053165309e-06 6.300163835394175719e-05 1.159994324598770843e-04 -4.700480737085999973e-05 -2.998290219025377044e-06 1.179981285435953008e-04 3.999683079346449493e-05 9.001074547284790465e-06 7.800150116166478073e-05 2.931617757024120724e-02 -1.701400040972253849e-02 1.426574351330068269e-01 -1.965898118714008887e-03 4.285315406189219890e-03 2.213785921123164954e-02 -2.809090352710521404e-02 -1.317101517770663879e-02 -2.622957151668683668e-03 -2.728870214174874877e-03 3.092896538483293212e-02 -2.592549628839455316e-03 2.400093653568133052e-03 -3.975687401893993229e-03 2.218115412093165512e-02 3.031543296404726651e-04 -1.297058360970086363e-04 2.076501420294487796e-02 -4.777898940907570648e-03 -4.566833981710121033e-04 2.206681193521867201e-02 8.015813336855574247e-05 -4.706951680845360108e-06 2.067400335005924183e-02 4.700100296541030037e-03 -1.669043665246025386e-05 2.209419164920452955e-02 1.661516907851971802e-04 -1.570477892573845144e-05 2.083200700786095802e-02 -1.248706850875243237e-04 -4.169676746158156510e-05 2.138099552620478447e-02 -4.485891374678171290e-05 -1.417009558296436261e-04 2.109000020191973551e-02 1.711445881912154331e-04 1.182977266155513062e-04 2.100900531148037001e-02 -1.498615816208169319e-04 -6.469992371052037063e-05 2.115699483448029578e-02 6.156653375368176235e-06 -2.270638333668213902e-05 2.071000059188253528e-02 5.513057326630054140e-05 1.093026946056176711e-04 2.135300071514173101e-02 2.152399605560902756e-06 -4.670490571156026054e-05 2.081400076916877298e-02 -4.186352448216645341e-05 1.063007147762195582e-04 2.120799680788725342e-02 1.414065088716330649e-05 3.029919644537871443e-05 2.110400016586162081e-02 -2.218586644985529597e-04 2.029914021095845434e-05 2.108699069753419350e-02 1.971304360731281058e-04 3.830261178291186020e-05 2.135500750412193394e-02 8.513031231144734001e-05 -2.236973288506968055e-04 2.135300665796249775e-02 -1.368624744557107409e-04 -2.686996786685882975e-04 2.117499825609837558e-02 6.016079431908593603e-05 -3.870787175198861675e-05 2.060800301774753235e-02 -1.348586550928849558e-04 1.882991146067426150e-04 2.108999185838118795e-02 -4.784111239367667983e-05 2.229289333962415076e-05 2.065599775500741656e-02 1.451363712723685085e-04 2.333006392321121543e-04 2.121300262210580254e-02 -2.873782446859007335e-03 1.607578774382139490e-03 -2.986913984252444199e-02 2.268095621403247789e-03 1.855617267399198647e-03 -2.686993397478120577e-02 5.848171745628004750e-04 4.017151361147325208e-04 -2.005998189983611985e-02 -1.181857345555885363e-04 -6.612835902642437641e-04 -2.000899545567929455e-02 -7.412201329564119202e-05 -1.813306124761181193e-03 -2.159597732970306230e-02 1.988171519594673117e-04 -4.328467502625308222e-05 -2.006799130897246944e-02 -4.999118782859771678e-04 -2.937379260427078718e-03 -2.677797873616231950e-02 -1.077107339275032438e-03 5.946902085134652153e-04 -2.191005231247926399e-02 1.584878902100211005e-03 9.676930154794956621e-04 -2.156494920220007952e-02 -7.905910807224970666e-05 9.867249884564029854e-05 -2.310400463978922944e-02 -2.410087546361054301e-07 -1.201264585112997831e-03 -1.866198299587876197e-02 9.781391449913332784e-05 -5.372836034481650799e-04 -1.999798841802834931e-02 5.718146019835940739e-04 1.327159686329319125e-04 -2.000197861544272468e-02 -1.193165760663190142e-03 -2.202895822851990391e-04 -2.049104548253986857e-02 6.239264171744745603e-04 -4.443231602065163960e-04 -2.275896831482604812e-02 1.101763816637743067e-03 6.447333750821253881e-04 -1.874496429357503519e-02 -6.371146804611245527e-04 3.726923593095206018e-04 -2.173403124800489528e-02 -4.581618600419521585e-04 1.120708849631762722e-03 -2.056103456503003551e-02 4.285956912480416611e-05 -9.299311967253459313e-06 -2.110899814250149012e-02 9.856179894590269186e-06 -7.329812354270859016e-05 -2.102699857898894173e-02 -6.013754744586167713e-05 -1.930023794111207324e-05 -2.118000219490551866e-02 1.863969385232587492e-06 4.569920310594044292e-05 -2.121600059173390715e-02 -5.113918172197850175e-05 7.770035046954907091e-05 -2.113800320369995864e-02 2.686442037806902031e-05 -5.430100077022202839e-05 -2.122899815592419956e-02 7.885509374539327360e-05 4.770223357442399467e-05 -2.099799748478655206e-02 3.786003351323452559e-05 1.170053598986128262e-05 -2.111999864382855044e-02 -1.261381488008395742e-04 -7.299973597645070889e-06 -2.116500505262879778e-02
1.541783598181368717e-02 -8.903564720051540191e-03 1.020867541550506130e-01 -1.436521386812991859e-02 -7.686264551355587865e-03 -1.945347600737365804e-02 -4.481930420181945841e-04 4.870676952611579895e-04 4.749974848072298708e-03 -6.451932260445349381e-04 1.480678211899850343e-04 4.747971632328302702e-03 9.908032423069073474e-04 -1.706932736537157200e-03 4.799064551344552933e-03 -3.451465993394136071e-04 2.020513668877989169e-04 3.603983084047871800e-03 -5.251947324319170777e-04 1.628172448196120795e-02 -1.946225224342061633e-02 -1.436148310760763198e-03 8.230529866749507336e-04 3.657929853157992038e-03 1.977804735663003712e-03 -7.933566236823300427e-06 4.795080654808192219e-03 -1.911510839607174678e-05 1.204009550320904818e-05 2.826999053542692594e-03 4.987183031853000719e-05 -2.695542162507782991e-05 3.147002415916723243e-03 -3.711840449340695562e-05 -1.409587845193976887e-04 2.905000489692674027e-03 1.038817395921505743e-04 9.504111923214821631e-05 2.906002885379573887e-03 -1.912196908653083886e-05 -1.295752262464964202e-05 2.994999407830606451e-03 -9.312249445322662029e-05 4.404273380045472874e-05 3.008995586342092052e-03 4.987171129030392287e-05 -2.295537909209499180e-05 3.150002359202880818e-03 -5.012136135753189305e-05 3.504230315425715763e-05 2.980997464964590254e-03 -6.122142925720581910e-06 2.504253808154631160e-05 2.999999398442011311e-03 -2.941053734615596007e-04 1.710369648514171938e-04 2.590985601263629239e-03 2.888814552013862971e-04 1.480410877948792371e-04 2.914009667308129718e-03 -5.131689625302850157e-06 2.045854904983810630e-06 3.233999765033896030e-03 -3.131569031588590286e-06 4.581080580703213373e-08 3.230999874833914102e-03 -1.912358242353077333e-05 -3.569570547227235088e-04 3.028004284950562650e-03 1.286891098591278650e-05 -1.095437185456689402e-05 3.219000682334085574e-03 1.788092269610774972e-05 -3.239586432543980479e-04 2.918005323858115230e-03 -3.191272295618819235e-04 1.850445979010197767e-04 3.127984384254468841e-03 2.968766861800101187e-04 1.940427545061255564e-04 3.032009340788126457e-03 -4.347140280249332301e-04 2.459008408106691502e-04 -7.018021194776126806e-03 6.291372345030884876e-04 -9.800485409542727695e-04 -3.388960489226041078e-03 -1.908440588634913561e-04 -5.450542931269867705e-04 -3.840000047231815778e-03 3.721569090414799004e-04 4.309451950588086928e-04 -3.844990958885133141e-03 -4.128699627027227772e-04 9.029552946083061653e-04 -3.176029617279517350e-03 5.213101297852927503e-05 -3.404566485785136032e-05 -3.217997397480336190e-03 1.158137884480292881e-03 -4.604892689780646362e-05 -3.386952189928737599e-03 -1.518497430586204821e-04 9.994783129603500326e-05 -3.688007603917357619e-03 -9.918709799345720203e-04 -8.404416687064655660e-05 -3.170039201205349620e-03 -4.234415685711456420e-03 2.451800544912246041e-03 -1.430220720338538400e-02 -3.090875237342399540e-05 -1.569032173342215951e-03 -2.270979015324386518e-03 4.264402904450738732e-03 6.958565704382423372e-04 -9.880836224828848727e-03 1.537398956084877434e-03 -4.034141208787630183e-03 -9.874880209774223108e-03 -2.715772881092618548e-03 1.769230995683612870e-04 -5.574113102114184627e-03 1.151337013795419341e-03 -6.641184209074023565e-04 -8.288943708559981527e-03 1.352093190475374363e-03 8.079667151788808748e-04 -2.272956398929194387e-03 1.661429291772233998e-04 -1.050499223840923132e-04 -3.511991748408800976e-03 -1.508771009502958213e-03 2.254922069215742862e-03 -5.580093413433794523e-03 -3.287354060791029364e-05 2.695600378154843602e-05 -3.105001723701297702e-03 2.412509753490332443e-05 3.956427020333199159e-06 -3.071999076554901044e-03 1.612426745326855723e-05 -1.604328315777405850e-05 -3.051999118785032276e-03 2.512427293081836597e-05 -9.043290205445142315e-06 -3.051998851541716691e-03 2.412521893883118977e-05 5.495639865960109255e-05 -3.073999799618978238e-03 -4.187354765260707136e-05 1.795601082942114638e-05 -3.105001962589086593e-03 1.612511867304136006e-05 -2.104358089097263049e-05 -3.072999047876693798e-03 3.712373649778402782e-05 -1.804311528915199071e-05 -3.038998235303716836e-03 -4.487478183747632926e-05 -5.004357565866968051e-05 -3.076001120690682357e-03 -4.490024451038139358e-04 2.570012730960641290e-04 6.497807259221366678e-05 1.369905392058336842e-04 -2.769968888830011693e-04 2.270095057860645551e-04 3.029935535186447011e-04 4.000021162258705042e-04 1.660066671581881333e-04 -1.970072475873885719e-04 -4.669974496552619465e-04 1.689985988507670543e-04 -1.420073719463955421e-04 -5.399733680593666099e-05 1.799949830710409655e-04 3.439871843037597791e-04 -1.929958600368630742e-04 3.110167439920282005e-04 3.039910560509561776e-04 1.900288108223309116e-05 2.200121095567219372e-04 -2.850079316331708811e-04 1.670030303405508590e-04 1.979860266868722332e-04 -1.400728894380648287e-05 1.560025913049756881e-04 1.819972180077965881e-04 -1.414315568706941105e-02 8.152719337380525538e-03 -2.057769152789539618e-02 1.595987920832833912e-03 1.216003287110064678e-03 3.200477500205345643e-04 1.254715876340307609e-02 9.069589199207405208e-03 -2.828161768222563904e-02 -1.587860518728382046e-03 -1.539739968814199042e-02 -2.827884638412020424e-02 -2.770987167968327544e-03 -2.595003004951353803e-03 -3.650760458429433593e-04 4.469325053080094694e-03 -2.569117375003193531e-03 -8.031781588375476802e-03 -2.640147964995753576e-04 -1.993995185304504088e-03 3.250175198535393208e-04 -6.020109649853972985e-04 3.490043844000229154e-04 2.759705377516085442e-04 8.720180114153239931e-04 3.706994056891564290e-03 -3.710170480421182051e-04 8.099520895303870239e-05 -3.399840461720354091e-05 1.170037803241353225e-04 -6.000361786139042923e-05 -4.399870536980297339e-05 8.799818048872089964e-05 -2.300593506209144712e-05 -3.899792620682910059e-05 1.449996162184077745e-04 3.499457393777546303e-05 3.900187241578156541e-05 1.340008721724476849e-04 -2.000100392507083330e-05 -3.399964406956057424e-05 2.399966760462519223e-05 -1.800240251463147007e-05 8.505838572367622217e-10 5.899926696983359155e-05 1.899692246399856802e-05 7.400107680585594453e-05 7.699972447009556726e-05 -4.100308064551269513e-05 1.800110961347538998e-05 7.599807517471233434e-05 2.199871258634257537e-05 2.000043646151996641e-05 3.200061227370807108e-05 2.921021070619780891e-02 -1.687201182493130308e-02 1.418464288041080823e-01 -2.027889129543399178e-03 4.272312321443516234e-03 2.191685687105524721e-02 -2.788590332362107793e-02 -1.306701538076472137e-02 -2.625950278378816685e-03 -2.638868935573344000e-03 3.068996480398673496e-02 -2.628542575443920584e-03 2.334101950462799061e-03 -4.040690256657743229e-03 2.197615235510067336e-02 2.871605380022070834e-04 -1.577079927689379799e-04 2.061201394853086691e-02 -4.725892207099219484e-03 -3.856857640524093719e-04 2.190281304623417635e-02 4.716296037012361576e-05 -2.870861299720095974e-05 2.055500234664809842e-02 4.677105163496550477e-03 1.030789419608120053e-05 2.197519032993596605e-02 1.351552663841133924e-04 -7.770601647039464624e-05 2.074300662461864286e-02 -7.786618783689598330e-05 -7.069837799476269406e-05 2.126999785134311288e-02 -5.785329428505925592e-05 -1.937029163590068734e-04 2.095100040992158366e-02 1.431470526213234670e-04 1.452968978689999876e-04 2.094900378855269960e-02 -1.118577789177620463e-04 7.298742171193861147e-06 2.106499536115919238e-02 -2.083945069736489449e-05 1.229229091012616501e-05 2.061499899628614629e-02 2.813455922957454602e-05 1.033013263231731332e-04 2.125499970083643067e-02 3.615762986707295418e-05 -2.370674709355472443e-05 2.068600182770814061e-02 -6.185770922119169049e-05 9.629870301241384549e-05 2.106499613538079935e-02 -3.685157922582998219e-05 2.029652842027641115e-05 2.091299823105340072e-02 -2.028499016979742170e-04 3.029607710702028516e-05 2.087199132965259288e-02 2.381392419270205222e-04 5.129951727496045961e-05 2.113900898956670021e-02 7.014028971326461163e-05 -2.227007906657192497e-04 2.110800603319971935e-02 -1.448545777154259325e-04 -2.207024087239631239e-04 2.098199724997833193e-02 7.616988759031387811e-05 -2.271104592990610160e-05 2.038500344264423253e-02 -1.418498085033226849e-04 1.492960293322581817e-04 2.087199212647065927e-02 -1.483189308114240067e-05 -8.710350855671287790e-06 2.042899953851718894e-02 1.401457362861446778e-04 2.322973822542601888e-04 2.098300243289312125e-02 -2.777792424328005740e-03 1.606582172774473176e-03 -2.962413591937272314e-02 2.220083065320012719e-03 1.837621671745800697e-03 -2.656193567446863205e-02 5.498086521826650152e-04 3.867181266803410553e-04 -1.985098311259374249e-02 -5.819209097426173512e-05 -6.662814255074324702e-04 -1.985299294168442821e-02 -7.813063908322594089e-05 -1.856303130110040049e-03 -2.138497688313878084e-02 1.468099115038276538e-04 -8.528212483643962140e-05 -1.989099283115519992e-02 -4.709206794465241059e-04 -2.840376192384357068e-03 -2.655997893070334570e-02 -1.098116519443826386e-03 6.236934291352129673e-04 -2.168405357898236727e-02 1.564871338227012600e-03 9.806956682080459307e-04 -2.137895020110092831e-02 -1.210713172622382297e-04 5.567677089662734284e-05 -2.280500574069909900e-02 1.574848760609101476e-05 -1.198260939770034832e-03 -1.840398238711827075e-02 1.268014421444349504e-04 -5.522792877481601812e-04 -1.969198702474167506e-02 5.308015557023073195e-04 1.647205518048599517e-04 -1.968098073898445419e-02 -1.161178041903389952e-03 -1.472853114764402179e-04 -2.018804521473103672e-02 6.339118595033485081e-04 -3.663180782158058195e-04 -2.239996901381681102e-02 1.038750455528049486e-03 5.867380605558140038e-04 -1.841796603698235210e-02 -5.901280189384212373e-04 3.436969586507085633e-04 -2.140702892327372986e-02 -4.451772744703163718e-04 1.092714198662282860e-03 -2.018303363903298231e-02 7.855092995725873012e-06 -5.297725005301294785e-06 -2.099899962454458702e-02 7.853015424330487767e-06 -5.829701611019012797e-05 -2.094899887316960252e-02 -1.714104007088501619e-05 -7.299052320755278918e-06 -2.109400061412202917e-02 -2.142636790413501874e-06 3.370150304198363933e-05 -2.105400058463474666e-02 -4.814258973785186951e-05 9.370153905375812233e-05 -2.105400330845970738e-02 4.086058166244885666e-05 -1.629966484543955021e-05 -2.113399812467560770e-02 4.985246099418657993e-05 1.370316366364334646e-05 -2.093399818370677082e-02 4.285601152382692070e-05 -2.829807849714144390e-05 -2.102199787320485624e-02 -9.614222796188411275e-05 -1.629857930708612261e-05 -2.106500370349635373e-02