2.715030000000000054e+00 3.096620000000000150e+00 4.655310000000000059e+00 9.997540000000000759e+00 3.843700000000000117e+00 2.237610000000000099e+00 2.026450000000000085e+00 1.099849999999999994e+00 2.237649999999999917e+00 5.785940000000000083e+00 3.096620000000000150e+00 4.655310000000000059e+00 3.855719999999999814e+00 3.843710000000000182e+00 2.237620000000000164e+00 5.097360000000000113e+00 1.099839999999999929e+00 2.237639999999999851e+00 8.856849999999999667e+00 3.096620000000000150e+00 4.655310000000000059e+00 6.926630000000000287e+00 3.843700000000000117e+00 2.237610000000000099e+00 8.168279999999999319e+00 1.099849999999999994e+00 2.237649999999999917e+00 1.473379999999999912e+00 5.840499999999999581e+00 4.655300000000000438e+00 3.302709999999999813e+00 8.584360000000000213e+00 4.655310000000000059e+00 2.614139999999999908e+00 6.587589999999999613e+00 2.237639999999999851e+00 4.544299999999999784e+00 5.840499999999999581e+00 4.655300000000000438e+00 6.373610000000000220e+00 8.584360000000000213e+00 4.655300000000000438e+00 5.685050000000000381e+00 6.587600000000000122e+00 2.237639999999999851e+00 7.615219999999999878e+00 5.840489999999999959e+00 4.655310000000000059e+00 9.444520000000000692e+00 8.584350000000000591e+00 4.655310000000000059e+00 8.755959999999999965e+00 6.587589999999999613e+00 2.237649999999999917e+00 1.128110000000000035e+01 4.383869999999999933e+00 9.157669999999999533e+00 3.310010000000000119e+00 1.640030000000000099e+00 9.157669999999999533e+00 5.139280000000000292e+00 4.383880000000000443e+00 9.157659999999999911e+00 6.380919999999999703e+00 1.640030000000000099e+00 9.157659999999999911e+00 8.210190000000000765e+00 4.383869999999999933e+00 9.157659999999999911e+00 9.451840000000000686e+00 1.640020000000000033e+00 9.157659999999999911e+00 3.897699999999999942e+00 7.127769999999999939e+00 9.157679999999999154e+00 6.968600000000000350e+00 7.127769999999999939e+00 9.157669999999999533e+00 1.003950999999999993e+01 7.127760000000000318e+00 9.157669999999999533e+00 3.998580000000000023e+00 3.636800000000000033e+00 1.157534000000000063e+01 7.069499999999999673e+00 3.636800000000000033e+00 1.157534000000000063e+01 1.014039999999999964e+01 3.636800000000000033e+00 1.157534000000000063e+01 2.756949999999999790e+00 6.380679999999999907e+00 1.157532999999999923e+01 4.586249999999999716e+00 9.124539999999999651e+00 1.157534000000000063e+01 5.827849999999999753e+00 6.380670000000000286e+00 1.157532999999999923e+01 7.657160000000000188e+00 9.124539999999999651e+00 1.157534000000000063e+01 8.898780000000000356e+00 6.380659999999999776e+00 1.157534000000000063e+01 1.072808000000000028e+01 9.124539999999999651e+00 1.157532999999999923e+01 5.282130000000000436e+00 4.176969999999999850e+00 1.849536000000000158e+01 1.256465999999999994e+01 4.924050000000000260e+00 1.607769000000000048e+01 4.593569999999999709e+00 2.180210000000000203e+00 1.607770000000000010e+01 8.353040000000000020e+00 4.176960000000000228e+00 1.849537000000000120e+01 6.422819999999999752e+00 4.924050000000000260e+00 1.607769000000000048e+01 7.664480000000000182e+00 2.180190000000000072e+00 1.607770000000000010e+01 1.142395999999999923e+01 4.176960000000000228e+00 1.849537000000000120e+01 9.493740000000000734e+00 4.924059999999999881e+00 1.607768000000000086e+01 1.073539000000000065e+01 2.180200000000000138e+00 1.607770999999999972e+01 4.040499999999999758e+00 6.920840000000000103e+00 1.849537000000000120e+01 5.869819999999999816e+00 9.664720000000000866e+00 1.849536000000000158e+01 5.181250000000000355e+00 7.667930000000000135e+00 1.607770000000000010e+01 7.111419999999999852e+00 6.920849999999999724e+00 1.849538000000000082e+01 8.940730000000000288e+00 9.664709999999999468e+00 1.849538000000000082e+01 8.252159999999999940e+00 7.667939999999999756e+00 1.607770999999999972e+01 1.018232000000000070e+01 6.920849999999999724e+00 1.849538000000000082e+01 1.201163000000000025e+01 9.664709999999999468e+00 1.849538000000000082e+01 1.132306999999999952e+01 7.667939999999999756e+00 1.607770000000000010e+01 2.648740000000000094e+00 1.681597999999999971e+01 4.655300000000000438e+00 5.719660000000000188e+00 1.681597999999999971e+01 4.655300000000000438e+00 8.790570000000000661e+00 1.681598999999999933e+01 4.655300000000000438e+00 1.058521999999999963e+01 9.331440000000000623e+00 2.237620000000000164e+00 4.443399999999999572e+00 9.331450000000000244e+00 2.237620000000000164e+00 7.514300000000000423e+00 9.331440000000000623e+00 2.237610000000000099e+00 2.061069999999999958e+00 1.132823999999999920e+01 4.655289999999999928e+00 3.890379999999999949e+00 1.407208999999999932e+01 4.655300000000000438e+00 1.117289000000000065e+01 1.481917999999999935e+01 2.237610000000000099e+00 3.201799999999999979e+00 1.207532999999999923e+01 2.237639999999999851e+00 5.131980000000000430e+00 1.132823999999999920e+01 4.655310000000000059e+00 6.961289999999999978e+00 1.407210000000000072e+01 4.655300000000000438e+00 5.031069999999999709e+00 1.481919000000000075e+01 2.237620000000000164e+00 6.272730000000000139e+00 1.207534000000000063e+01 2.237639999999999851e+00 8.202890000000000015e+00 1.132823999999999920e+01 4.655300000000000438e+00 1.003219999999999956e+01 1.407211000000000034e+01 4.655300000000000438e+00 8.101979999999999293e+00 1.481919000000000075e+01 2.237610000000000099e+00 9.343629999999999214e+00 1.207532999999999923e+01 2.237629999999999786e+00 1.186877999999999922e+01 9.871629999999999683e+00 9.157650000000000290e+00 5.726960000000000051e+00 9.871610000000000440e+00 9.157659999999999911e+00 8.797860000000000014e+00 9.871610000000000440e+00 9.157659999999999911e+00 1.245645000000000024e+01 1.535936000000000057e+01 9.157650000000000290e+00 4.485369999999999635e+00 1.261550000000000082e+01 9.157669999999999533e+00 6.314630000000000187e+00 1.535936000000000057e+01 9.157659999999999911e+00 7.556280000000000108e+00 1.261550000000000082e+01 9.157669999999999533e+00 9.385529999999999262e+00 1.535937000000000019e+01 9.157659999999999911e+00 1.062717999999999918e+01 1.261550000000000082e+01 9.157679999999999154e+00 3.932310000000000194e+00 1.735615999999999914e+01 1.157535000000000025e+01 7.003210000000000157e+00 1.735614999999999952e+01 1.157534000000000063e+01 1.007413999999999987e+01 1.735614999999999952e+01 1.157535000000000025e+01 3.344629999999999992e+00 1.186839999999999939e+01 1.157534000000000063e+01 5.173939999999999984e+00 1.461227000000000054e+01 1.157532999999999923e+01 6.415530000000000399e+00 1.186842000000000041e+01 1.157535000000000025e+01 8.244839999999999947e+00 1.461227000000000054e+01 1.157532999999999923e+01 9.486459999999999226e+00 1.186841000000000079e+01 1.157534000000000063e+01 1.131575999999999915e+01 1.461227000000000054e+01 1.157535000000000025e+01 5.215860000000000163e+00 1.789631999999999934e+01 1.849536000000000158e+01 8.286770000000000636e+00 1.789632999999999896e+01 1.849537000000000120e+01 1.135768000000000022e+01 1.789631999999999934e+01 1.849538000000000082e+01 1.315232999999999919e+01 1.041179999999999950e+01 1.607769000000000048e+01 7.010510000000000019e+00 1.041179999999999950e+01 1.607769000000000048e+01 1.008141999999999960e+01 1.041178999999999988e+01 1.607768000000000086e+01 4.628180000000000405e+00 1.240859000000000023e+01 1.849537000000000120e+01 6.457499999999999574e+00 1.515244999999999997e+01 1.849537000000000120e+01 1.374000000000000021e+01 1.589953000000000038e+01 1.607769000000000048e+01 5.768930000000000113e+00 1.315567000000000064e+01 1.607770000000000010e+01 7.699099999999999611e+00 1.240859000000000023e+01 1.849538000000000082e+01 9.528389999999999915e+00 1.515244000000000035e+01 1.849537000000000120e+01 7.598169999999999646e+00 1.589953000000000038e+01 1.607769000000000048e+01 8.839840000000000586e+00 1.315568000000000026e+01 1.607770999999999972e+01 1.077000999999999920e+01 1.240859000000000023e+01 1.849537000000000120e+01 1.259930999999999912e+01 1.515244999999999997e+01 1.849537000000000120e+01 1.066909000000000063e+01 1.589954000000000001e+01 1.607769000000000048e+01 1.191075000000000017e+01 1.315568000000000026e+01 1.607770000000000010e+01 8.352100000000000080e-01 2.098209999999999908e+00 3.446450000000000014e+00 1.053270000000000017e+01 4.082840000000000025e+00 5.723169999999999646e+00 2.179920000000000080e+00 2.857499999999999929e+00 1.169820000000000082e+00 8.363699999999999690e+00 6.141530000000000378e+00 8.089850000000000207e+00 2.664579999999999949e+00 4.842109999999999914e+00 3.446509999999999962e+00 2.561609999999999943e+00 1.338999999999999968e+00 5.723209999999999908e+00 3.906130000000000102e+00 2.098219999999999974e+00 3.446439999999999948e+00 4.390869999999999607e+00 4.082840000000000025e+00 5.723160000000000025e+00 5.250840000000000174e+00 2.857489999999999863e+00 1.169820000000000082e+00 8.848280000000000811e+00 8.126129999999999853e+00 1.036647999999999925e+01 5.735500000000000043e+00 4.842120000000000424e+00 3.446499999999999897e+00 5.632509999999999906e+00 1.338999999999999968e+00 5.723209999999999908e+00 6.977030000000000065e+00 2.098219999999999974e+00 3.446439999999999948e+00 7.461780000000000079e+00 4.082849999999999646e+00 5.723160000000000025e+00 8.321749999999999758e+00 2.857499999999999929e+00 1.169820000000000082e+00 5.292779999999999596e+00 6.141519999999999868e+00 8.089840000000000586e+00 8.806419999999999249e+00 4.842109999999999914e+00 3.446499999999999897e+00 8.703440000000000509e+00 1.338999999999999968e+00 5.723200000000000287e+00 1.422889999999999988e+00 7.585939999999999905e+00 3.446439999999999948e+00 9.383000000000000229e-01 5.601350000000000051e+00 1.169820000000000082e+00 3.149290000000000145e+00 6.826740000000000030e+00 5.723200000000000287e+00 4.493800000000000239e+00 7.585950000000000415e+00 3.446450000000000014e+00 4.009220000000000006e+00 5.601350000000000051e+00 1.169810000000000016e+00 6.220209999999999795e+00 6.826740000000000030e+00 5.723200000000000287e+00 7.564720000000000333e+00 7.585950000000000415e+00 3.446450000000000014e+00 7.080129999999999590e+00 5.601350000000000051e+00 1.169810000000000016e+00 9.291119999999999379e+00 6.826730000000000409e+00 5.723209999999999908e+00 2.118770000000000042e+00 2.638380000000000170e+00 1.036647999999999925e+01 3.463490000000000180e+00 3.397670000000000190e+00 8.089859999999999829e+00 5.777350000000000207e+00 8.126129999999999853e+00 1.036646999999999963e+01 3.948150000000000048e+00 5.382290000000000241e+00 1.036654000000000053e+01 5.189680000000000071e+00 2.638380000000000170e+00 1.036647999999999925e+01 6.534390000000000143e+00 3.397679999999999811e+00 8.089840000000000586e+00 2.221859999999999946e+00 6.141530000000000378e+00 8.089840000000000586e+00 7.019059999999999633e+00 5.382279999999999731e+00 1.036654000000000053e+01 8.260600000000000165e+00 2.638389999999999791e+00 1.036647999999999925e+01 9.605309999999999349e+00 3.397670000000000190e+00 8.089850000000000207e+00 2.706449999999999800e+00 8.126120000000000232e+00 1.036646999999999963e+01 1.008996999999999922e+01 5.382290000000000241e+00 1.036652999999999913e+01 3.506299999999999972e-01 1.136100000000000027e-01 1.169810000000000016e+00 7.775999999999999801e+00 6.537699999999999623e-01 8.089859999999999829e+00 4.705099999999999838e+00 6.537699999999999623e-01 8.089840000000000586e+00 1.634179999999999966e+00 6.537899999999999823e-01 8.089850000000000207e+00 6.492449999999999832e+00 1.136000000000000065e-01 1.169820000000000082e+00 3.421539999999999804e+00 1.136000000000000065e-01 1.169820000000000082e+00 1.181625000000000014e+01 4.623009999999999842e+00 1.264319000000000059e+01 3.845169999999999977e+00 1.879170000000000007e+00 1.264323000000000086e+01 5.674419999999999575e+00 4.623009999999999842e+00 1.264320000000000022e+01 6.916080000000000005e+00 1.879180000000000073e+00 1.264323000000000086e+01 8.745329999999999160e+00 4.623009999999999842e+00 1.264320000000000022e+01 9.986990000000000478e+00 1.879180000000000073e+00 1.264323000000000086e+01 4.432850000000000179e+00 7.366909999999999847e+00 1.264324000000000048e+01 7.503750000000000142e+00 7.366920000000000357e+00 1.264324000000000048e+01 1.057468000000000075e+01 7.366909999999999847e+00 1.264324000000000048e+01 3.402330000000000076e+00 3.178549999999999986e+00 1.728651999999999944e+01 1.309980999999999973e+01 5.163190000000000168e+00 1.956323000000000079e+01 4.747040000000000148e+00 3.937840000000000007e+00 1.500988000000000078e+01 1.185823000000000071e+01 7.907090000000000174e+00 1.956326999999999927e+01 5.231700000000000017e+00 5.922460000000000058e+00 1.728657000000000110e+01 5.128720000000000390e+00 2.419350000000000112e+00 1.956327999999999889e+01 6.473230000000000040e+00 3.178560000000000052e+00 1.728651999999999944e+01 6.957980000000000054e+00 5.163190000000000168e+00 1.956322000000000116e+01 7.817949999999999733e+00 3.937860000000000138e+00 1.500989000000000040e+01 9.647249999999999659e+00 6.681689999999999685e+00 1.500988000000000078e+01 8.302609999999999602e+00 5.922460000000000058e+00 1.728657000000000110e+01 8.199630000000000862e+00 2.419350000000000112e+00 1.956326999999999927e+01 9.544150000000000134e+00 3.178560000000000052e+00 1.728650999999999982e+01 1.002889000000000053e+01 5.163179999999999659e+00 1.956323000000000079e+01 1.088887000000000072e+01 3.937850000000000072e+00 1.500989000000000040e+01 1.013181999999999938e+01 8.666309999999999292e+00 1.728650000000000020e+01 1.137353000000000058e+01 5.922450000000000436e+00 1.728658000000000072e+01 1.127055000000000007e+01 2.419350000000000112e+00 1.956326999999999927e+01 3.990000000000000213e+00 8.666299999999999670e+00 1.728650999999999982e+01 3.505409999999999915e+00 6.681700000000000195e+00 1.500988000000000078e+01 5.716400000000000148e+00 7.907079999999999664e+00 1.956325999999999965e+01 7.060909999999999798e+00 8.666299999999999670e+00 1.728650999999999982e+01 6.576319999999999943e+00 6.681700000000000195e+00 1.500988000000000078e+01 8.787300000000000111e+00 7.907079999999999664e+00 1.956326999999999927e+01 2.917739999999999778e+00 1.193950000000000067e+00 1.500990000000000002e+01 9.059570000000000789e+00 1.193959999999999910e+00 1.500988000000000078e+01 5.988649999999999807e+00 1.193959999999999910e+00 1.500989000000000040e+01 1.112036999999999942e+01 9.570579999999999643e+00 5.723150000000000404e+00 1.126531999999999911e+01 1.635776999999999859e+01 1.036654000000000053e+01 3.252270000000000216e+00 1.032985000000000042e+01 3.446489999999999831e+00 4.978550000000000253e+00 9.570570000000000022e+00 5.723150000000000404e+00 8.951370000000000715e+00 1.162926000000000037e+01 8.089850000000000207e+00 6.323170000000000179e+00 1.032984000000000080e+01 3.446509999999999962e+00 8.049469999999999459e+00 9.570579999999999643e+00 5.723160000000000025e+00 1.078065999999999924e+01 1.437315000000000076e+01 8.089859999999999829e+00 9.394099999999999895e+00 1.032985000000000042e+01 3.446509999999999962e+00 2.010569999999999968e+00 1.307367999999999952e+01 3.446439999999999948e+00 1.170804000000000045e+01 1.505832000000000015e+01 5.723160000000000025e+00 3.355280000000000040e+00 1.383299000000000056e+01 1.169810000000000016e+00 1.525979999999999892e+00 1.108907999999999916e+01 1.169820000000000082e+00 3.839949999999999974e+00 1.581758999999999915e+01 3.446499999999999897e+00 3.736959999999999837e+00 1.231448999999999927e+01 5.723209999999999908e+00 5.081479999999999997e+00 1.307368999999999915e+01 3.446439999999999948e+00 5.566220000000000390e+00 1.505832000000000015e+01 5.723150000000000404e+00 6.426190000000000069e+00 1.383299000000000056e+01 1.169810000000000016e+00 4.596899999999999764e+00 1.108909000000000056e+01 1.169820000000000082e+00 6.910870000000000068e+00 1.581760000000000055e+01 3.446499999999999897e+00 6.807890000000000441e+00 1.231447999999999965e+01 5.723209999999999908e+00 8.152400000000000091e+00 1.307368999999999915e+01 3.446439999999999948e+00 8.637130000000000862e+00 1.505832000000000015e+01 5.723150000000000404e+00 9.497109999999999275e+00 1.383299000000000056e+01 1.169810000000000016e+00 7.667819999999999858e+00 1.108907999999999916e+01 1.169820000000000082e+00 9.981769999999999143e+00 1.581758999999999915e+01 3.446509999999999962e+00 9.878790000000000404e+00 1.231447000000000003e+01 5.723209999999999908e+00 9.435940000000000438e+00 1.361387000000000036e+01 1.036646999999999963e+01 4.535820000000000185e+00 1.087002000000000024e+01 1.036652999999999913e+01 8.194419999999999149e+00 1.635775999999999897e+01 1.036652999999999913e+01 7.606729999999999769e+00 1.087002000000000024e+01 1.036654000000000053e+01 5.880460000000000242e+00 1.162925000000000075e+01 8.089850000000000207e+00 1.067764999999999986e+01 1.087003999999999948e+01 1.036652999999999913e+01 3.294130000000000003e+00 1.361387000000000036e+01 1.036647999999999925e+01 4.638849999999999696e+00 1.437315000000000076e+01 8.089850000000000207e+00 2.809530000000000083e+00 1.162927000000000000e+01 8.089850000000000207e+00 5.123499999999999943e+00 1.635775999999999897e+01 1.036652999999999913e+01 6.365039999999999587e+00 1.361387000000000036e+01 1.036646999999999963e+01 7.709740000000000038e+00 1.437315000000000076e+01 8.089850000000000207e+00 2.767609999999999904e+00 8.345230000000000814e+00 1.169810000000000016e+00 1.019298999999999999e+01 8.885410000000000252e+00 8.089859999999999829e+00 7.122080000000000410e+00 8.885400000000000631e+00 8.089840000000000586e+00 4.051149999999999807e+00 8.885410000000000252e+00 8.089850000000000207e+00 8.909420000000000783e+00 8.345230000000000814e+00 1.169820000000000082e+00 5.838510000000000311e+00 8.345240000000000435e+00 1.169820000000000082e+00 1.240393000000000079e+01 1.011077000000000048e+01 1.264319000000000059e+01 6.262109999999999843e+00 1.011076000000000086e+01 1.264320000000000022e+01 9.333019999999999428e+00 1.011077000000000048e+01 1.264319000000000059e+01 1.299160999999999966e+01 1.559849999999999959e+01 1.264320000000000022e+01 5.020529999999999937e+00 1.285464999999999947e+01 1.264325000000000010e+01 6.849789999999999601e+00 1.559850999999999921e+01 1.264320000000000022e+01 8.091430000000000788e+00 1.285464999999999947e+01 1.264323000000000086e+01 9.920690000000000452e+00 1.559850999999999921e+01 1.264317999999999920e+01 1.116234999999999999e+01 1.285466000000000086e+01 1.264324000000000048e+01 1.368746999999999936e+01 1.065091999999999928e+01 1.956322000000000116e+01 1.244590999999999958e+01 1.339481999999999928e+01 1.956327999999999889e+01 5.819379999999999775e+00 1.141019999999999968e+01 1.728657000000000110e+01 7.545659999999999812e+00 1.065093000000000067e+01 1.956322000000000116e+01 1.254888000000000048e+01 1.689793999999999841e+01 1.728657000000000110e+01 8.890290000000000248e+00 1.141020999999999930e+01 1.728658000000000072e+01 1.061656999999999940e+01 1.065093000000000067e+01 1.956323000000000079e+01 1.023492000000000068e+01 1.216943999999999981e+01 1.500989000000000040e+01 1.196119000000000021e+01 1.141019999999999968e+01 1.728657000000000110e+01 4.577670000000000350e+00 1.415404999999999980e+01 1.728650000000000020e+01 1.427515999999999963e+01 1.613868000000000080e+01 1.956322000000000116e+01 5.922399999999999665e+00 1.491332000000000058e+01 1.500989000000000040e+01 4.093090000000000117e+00 1.216944999999999943e+01 1.500988000000000078e+01 6.407060000000000421e+00 1.689795000000000158e+01 1.728656000000000148e+01 6.304070000000000285e+00 1.339481999999999928e+01 1.956327999999999889e+01 7.648600000000000065e+00 1.415404000000000018e+01 1.728650000000000020e+01 8.133330000000000837e+00 1.613867000000000118e+01 1.956323000000000079e+01 8.993309999999999249e+00 1.491333000000000020e+01 1.500988000000000078e+01 7.164010000000000211e+00 1.216943999999999981e+01 1.500989000000000040e+01 9.477959999999999496e+00 1.689793999999999841e+01 1.728658000000000072e+01 9.374990000000000379e+00 1.339481999999999928e+01 1.956326999999999927e+01 1.071950999999999965e+01 1.415404000000000018e+01 1.728651999999999944e+01 1.120425000000000004e+01 1.613866000000000156e+01 1.956322000000000116e+01 1.206422000000000061e+01 1.491333000000000020e+01 1.500989000000000040e+01 5.334710000000000285e+00 9.425589999999999691e+00 1.500989000000000040e+01 1.147653999999999996e+01 9.425580000000000069e+00 1.500988000000000078e+01 8.405620000000000758e+00 9.425589999999999691e+00 1.500989000000000040e+01