-2.759407847370000127e+03
-2.759426848680000148e+03
-2.759420778830000017e+03
-2.759389042060000065e+03
-2.759331067499999790e+03
-2.759246220439999888e+03
-2.759133921470000132e+03
-2.758993684539999776e+03
-2.758825034999999843e+03
-2.758627662360000159e+03
