-1.332530999999999910e+00 3.094390000000000196e-01 1.457805000000000017e+00 1.332095000000000029e+00 -3.088000000000000189e-01 -1.457370999999999972e+00 1.333129999999999926e+00 -3.092300000000000049e-01 -1.457931000000000088e+00 -1.332945000000000046e+00 3.093119999999999759e-01 1.457586000000000048e+00 1.332740000000000036e+00 -3.093250000000000166e-01 -1.457480000000000109e+00 1.332079000000000013e+00 -3.087230000000000252e-01 -1.457332999999999990e+00 -1.333495000000000097e+00 3.094169999999999976e-01 1.457346000000000030e+00 1.332840999999999942e+00 -3.091800000000000104e-01 -1.457492000000000010e+00 1.332116999999999996e+00 -3.090829999999999966e-01 -1.457281999999999966e+00 -1.331631000000000009e+00 3.086889999999999912e-01 1.457678000000000029e+00 -1.333580999999999905e+00 3.094339999999999868e-01 1.457839000000000107e+00 1.332708999999999921e+00 -3.088199999999999834e-01 -1.456838999999999995e+00 -1.332805000000000017e+00 3.093560000000000199e-01 1.458291999999999922e+00 -1.332367000000000079e+00 3.089810000000000056e-01 1.457173999999999969e+00 1.331998000000000015e+00 -3.095080000000000053e-01 -1.456871000000000027e+00 -1.332683000000000062e+00 3.089819999999999789e-01 1.458090000000000108e+00 -1.333110999999999935e+00 3.093040000000000234e-01 1.457583999999999991e+00 1.332570999999999950e+00 -3.092949999999999866e-01 -1.456949999999999967e+00 1.332225999999999910e+00 -3.089640000000000164e-01 -1.457716999999999929e+00 1.333180999999999949e+00 -3.095319999999999738e-01 -1.457858000000000098e+00 1.332770999999999928e+00 -3.093620000000000259e-01 -1.457535999999999943e+00 1.332047999999999899e+00 -3.089399999999999924e-01 -1.457290999999999892e+00 1.332897999999999916e+00 -3.092820000000000014e-01 -1.457821999999999951e+00 1.331930999999999976e+00 -3.091200000000000059e-01 -1.456963000000000008e+00 1.332872999999999974e+00 -3.087960000000000149e-01 -1.457008000000000081e+00 1.332281000000000049e+00 -3.095120000000000093e-01 -1.457020999999999900e+00 1.332526000000000099e+00 -3.089359999999999884e-01 -1.456903999999999977e+00 -1.332546999999999926e+00 3.091280000000000139e-01 1.457780999999999993e+00 -1.333091999999999944e+00 3.090089999999999781e-01 1.457513000000000059e+00 -1.333348999999999895e+00 3.089109999999999912e-01 1.457173999999999969e+00 -1.331836999999999938e+00 3.088060000000000249e-01 1.457848000000000033e+00 -1.333339000000000052e+00 3.091130000000000266e-01 1.457900999999999891e+00 -1.332764999999999977e+00 3.093480000000000119e-01 1.458345999999999920e+00 -1.332273999999999958e+00 3.089339999999999864e-01 1.457262000000000057e+00 -1.332840000000000025e+00 3.092030000000000056e-01 1.458199000000000023e+00 -1.333201000000000080e+00 3.092170000000000196e-01 1.457759999999999945e+00 -1.332446999999999937e+00 3.093369999999999731e-01 1.458020000000000094e+00 1.332235000000000058e+00 -3.089529999999999776e-01 -1.457564000000000082e+00 1.333080000000000043e+00 -3.095729999999999871e-01 -1.457816999999999918e+00 -1.332969000000000070e+00 3.092420000000000169e-01 1.457627999999999924e+00 1.332842000000000082e+00 -3.092019999999999769e-01 -1.457497000000000043e+00 1.331951000000000107e+00 -3.087849999999999762e-01 -1.457365999999999939e+00 -1.333401999999999976e+00 3.092059999999999809e-01 1.457324999999999982e+00 1.332999000000000045e+00 -3.094459999999999988e-01 -1.457562000000000024e+00 1.332146999999999970e+00 -3.092409999999999881e-01 -1.457314999999999916e+00 -1.331557000000000102e+00 3.089000000000000079e-01 1.457643000000000022e+00 -1.333703000000000083e+00 3.092159999999999909e-01 1.458164000000000016e+00 1.332738999999999896e+00 -3.087779999999999969e-01 -1.456730999999999998e+00 -1.332680000000000087e+00 3.091760000000000064e-01 1.458259999999999890e+00 -1.332324999999999982e+00 3.088779999999999859e-01 1.457160999999999929e+00 1.332224000000000075e+00 -3.095060000000000033e-01 -1.457073000000000063e+00 -1.332514999999999894e+00 3.088629999999999987e-01 1.458047000000000093e+00 -1.333075000000000010e+00 3.094169999999999976e-01 1.457591999999999999e+00 1.332446999999999937e+00 -3.092550000000000021e-01 -1.456785999999999914e+00 -1.332154999999999978e+00 3.085399999999999809e-01 1.457101999999999897e+00 -1.332999000000000045e+00 3.090689999999999826e-01 1.457645000000000080e+00 -1.333444999999999991e+00 3.089870000000000116e-01 1.457918000000000047e+00 1.332114000000000020e+00 -3.088199999999999834e-01 -1.457333999999999907e+00 1.332225999999999910e+00 -3.093279999999999919e-01 -1.457138000000000044e+00 1.333115000000000050e+00 -3.093469999999999831e-01 -1.457629999999999981e+00 -1.332905999999999924e+00 3.089089999999999892e-01 1.457721999999999962e+00 -1.332945999999999964e+00 3.092949999999999866e-01 1.458390000000000075e+00 1.332249999999999934e+00 -3.093659999999999743e-01 -1.456973000000000074e+00 1.332886999999999933e+00 -3.094080000000000163e-01 -1.457861000000000073e+00 -1.333236000000000088e+00 3.088110000000000022e-01 1.457263999999999893e+00 -1.331912999999999903e+00 3.090780000000000194e-01 1.457929000000000030e+00 1.332670999999999939e+00 -3.092260000000000009e-01 -1.456992000000000065e+00 1.332181999999999977e+00 -3.091519999999999824e-01 -1.457591999999999999e+00 -1.332194000000000100e+00 3.089180000000000259e-01 1.457718000000000069e+00 -1.333091999999999944e+00 3.094609999999999861e-01 1.458463999999999983e+00 1.333064000000000027e+00 -3.090390000000000081e-01 -1.456673000000000107e+00 1.332740000000000036e+00 -3.093099999999999739e-01 -1.457513000000000059e+00 1.332170000000000076e+00 -3.089259999999999784e-01 -1.457340000000000080e+00 1.332298999999999900e+00 -3.091809999999999836e-01 -1.457405999999999979e+00 1.333280000000000021e+00 -3.092230000000000256e-01 -1.457961999999999980e+00 1.332286999999999999e+00 -3.093629999999999991e-01 -1.456997000000000098e+00 1.332756999999999969e+00 -3.092750000000000221e-01 -1.457629000000000064e+00 1.332570999999999950e+00 -3.090860000000000274e-01 -1.457024000000000097e+00 1.332062999999999997e+00 -3.089219999999999744e-01 -1.457518000000000091e+00 1.333309999999999995e+00 -3.089810000000000056e-01 -1.457017999999999924e+00 1.332786000000000026e+00 -3.092190000000000216e-01 -1.457665999999999906e+00 -1.332265999999999950e+00 3.086979999999999724e-01 1.457082999999999906e+00 -1.332872000000000057e+00 3.091169999999999751e-01 1.457480000000000109e+00 -1.333426000000000000e+00 3.093730000000000091e-01 1.457743000000000011e+00 -1.332713999999999954e+00 3.091459999999999764e-01 1.457337000000000105e+00 -1.332958000000000087e+00 3.094950000000000201e-01 1.458323999999999954e+00 -1.332996999999999987e+00 3.086999999999999744e-01 1.457065000000000055e+00 -1.331898000000000026e+00 3.092309999999999781e-01 1.457834000000000074e+00 -1.332484999999999919e+00 3.090769999999999906e-01 1.457773999999999903e+00 -1.333015999999999979e+00 3.099109999999999920e-01 1.458215999999999957e+00 -1.332300999999999958e+00 3.088830000000000187e-01 1.457206000000000001e+00 -1.333059999999999912e+00 3.091630000000000211e-01 1.457819999999999894e+00 -1.333431999999999951e+00 3.091800000000000104e-01 1.457743999999999929e+00 1.332133999999999929e+00 -3.087039999999999784e-01 -1.457360999999999907e+00 1.332117999999999913e+00 -3.091070000000000206e-01 -1.457074999999999898e+00 1.333032999999999912e+00 -3.090330000000000021e-01 -1.457607000000000097e+00 -1.332756999999999969e+00 3.087579999999999769e-01 1.457440000000000069e+00 -1.332913999999999932e+00 3.092250000000000276e-01 1.458082000000000100e+00 1.332340999999999998e+00 -3.094020000000000103e-01 -1.457181000000000060e+00 1.332629000000000064e+00 -3.092019999999999769e-01 -1.457610000000000072e+00 -1.333291999999999922e+00 3.089140000000000219e-01 1.457143000000000077e+00 -1.331820000000000004e+00 3.092230000000000256e-01 1.457691999999999988e+00 1.332797999999999927e+00 -3.090350000000000041e-01 -1.457176999999999945e+00 1.332111999999999963e+00 -3.088929999999999731e-01 -1.457643000000000022e+00 -1.332259000000000082e+00 3.088650000000000007e-01 1.457621000000000056e+00 -1.333050999999999986e+00 3.095450000000000146e-01 1.458287000000000111e+00 1.333029999999999937e+00 -3.089319999999999844e-01 -1.456846000000000085e+00 1.332672000000000079e+00 -3.092840000000000034e-01 -1.457408999999999955e+00 7.839999999999999747e-04 -6.899999999999999667e-05 -4.960000000000000216e-04 -4.907420000000000115e-01 -1.069959999999999939e-01 -8.493699999999999861e-02 4.903009999999999868e-01 1.055040000000000006e-01 8.572000000000000453e-02 4.901809999999999778e-01 1.061850000000000016e-01 8.548400000000000443e-02 1.279999999999999942e-04 -1.689999999999999879e-04 -1.010000000000000020e-04 -4.909040000000000070e-01 -1.066909999999999942e-01 -8.563300000000000078e-02 3.780000000000000265e-04 1.200000000000000030e-04 -1.469999999999999953e-04 -4.907839999999999980e-01 -1.063230000000000008e-01 -8.498899999999999511e-02 4.899560000000000026e-01 1.061529999999999974e-01 8.530300000000000382e-02 6.669999999999999497e-04 -3.400000000000000244e-04 2.469999999999999865e-04 3.879999999999999985e-04 -2.500000000000000052e-04 3.919999999999999873e-04 -4.905309999999999948e-01 -1.061119999999999980e-01 -8.631600000000000383e-02 6.539999999999999590e-04 -4.679999999999999915e-04 2.979999999999999793e-04 -4.906929999999999903e-01 -1.068950000000000039e-01 -8.444000000000000117e-02 4.907159999999999855e-01 1.057669999999999999e-01 8.517700000000000271e-02 4.904339999999999811e-01 1.065620000000000039e-01 8.534600000000000519e-02 -4.859999999999999954e-04 -4.620000000000000083e-04 2.449999999999999921e-04 -4.915309999999999957e-01 -1.063970000000000055e-01 -8.567299999999999915e-02 4.279999999999999950e-04 2.469999999999999865e-04 6.300000000000000261e-04 4.903250000000000108e-01 1.067140000000000033e-01 8.571199999999999652e-02 -4.911760000000000015e-01 -1.072459999999999941e-01 -8.567800000000000415e-02 2.919999999999999961e-04 1.230000000000000082e-04 -1.900000000000000105e-05 4.906070000000000153e-01 1.064829999999999943e-01 8.560600000000000154e-02 -4.907949999999999813e-01 -1.072059999999999957e-01 -8.543199999999999406e-02 7.630000000000000063e-04 -2.169999999999999891e-04 6.899999999999999667e-05 4.902309999999999723e-01 1.061730000000000035e-01 8.574800000000000477e-02 -4.912349999999999772e-01 -1.072089999999999987e-01 -8.569200000000000428e-02 6.729999999999999871e-04 8.210000000000000067e-04 -8.589999999999999546e-04 4.902650000000000063e-01 1.067909999999999970e-01 8.529799999999999882e-02 1.039999999999999936e-04 -4.600000000000000004e-05 3.469999999999999777e-04 -4.000000000000000327e-05 2.990000000000000036e-04 -5.379999999999999583e-04 5.019999999999999506e-04 9.810000000000001011e-04 -1.054999999999999948e-03 4.903799999999999826e-01 1.070730000000000015e-01 8.494500000000000661e-02 4.902839999999999976e-01 1.065429999999999988e-01 8.545800000000000618e-02 3.229999999999999907e-04 6.470000000000000057e-04 -3.789999999999999966e-04 5.360000000000000181e-04 3.490000000000000263e-04 -4.209999999999999875e-04 4.906840000000000090e-01 1.070090000000000069e-01 8.461399999999999477e-02 3.609999999999999928e-04 8.200000000000000095e-05 6.710000000000000469e-04 -4.650000000000000270e-04 -2.500000000000000120e-05 -3.930000000000000117e-04 4.901610000000000134e-01 1.062120000000000009e-01 8.466700000000000614e-02 4.908279999999999865e-01 1.076880000000000059e-01 8.497999999999999998e-02 4.912569999999999992e-01 1.077489999999999976e-01 8.534200000000000119e-02 4.905829999999999913e-01 1.070669999999999955e-01 8.473100000000000076e-02 4.908330000000000193e-01 1.066899999999999932e-01 8.498799999999999411e-02 4.912270000000000247e-01 1.067879999999999940e-01 8.466999999999999527e-02 -4.904290000000000038e-01 -1.061969999999999997e-01 -8.573000000000000065e-02 -4.912170000000000147e-01 -1.066020000000000023e-01 -8.566000000000000003e-02 -4.907710000000000128e-01 -1.055299999999999988e-01 -8.568900000000000128e-02 -4.908100000000000240e-01 -1.061020000000000019e-01 -8.630500000000000671e-02 -4.903509999999999813e-01 -1.059839999999999949e-01 -8.558000000000000329e-02 -4.911829999999999807e-01 -1.062850000000000045e-01 -8.580999999999999739e-02 -4.911130000000000217e-01 -1.066089999999999954e-01 -8.636099999999999333e-02 -4.906490000000000018e-01 -1.066720000000000029e-01 -8.603500000000000036e-02 -4.910780000000000145e-01 -1.065809999999999952e-01 -8.615499999999999547e-02 6.899999999999999667e-04 2.169999999999999891e-04 5.450000000000000200e-04 -4.903870000000000173e-01 -1.074309999999999987e-01 -8.573200000000000265e-02 4.899569999999999759e-01 1.068250000000000033e-01 8.596900000000000375e-02 -4.910519999999999885e-01 -1.067280000000000034e-01 -8.676300000000000678e-02 -6.499999999999999431e-05 9.500000000000000523e-05 -3.539999999999999853e-04 -4.908009999999999873e-01 -1.076440000000000036e-01 -8.555599999999999317e-02 6.570000000000000319e-04 1.659999999999999963e-04 5.419999999999999471e-04 -4.909999999999999920e-01 -1.069699999999999956e-01 -8.557199999999999529e-02 4.900829999999999909e-01 1.069240000000000052e-01 8.575099999999999389e-02 4.904290000000000038e-01 1.070210000000000050e-01 8.524299999999999933e-02 2.829999999999999942e-04 3.970000000000000005e-04 -8.100000000000000375e-05 -4.907219999999999915e-01 -1.073360000000000009e-01 -8.610700000000000298e-02 4.449999999999999746e-04 -3.739999999999999835e-04 1.129000000000000012e-03 -4.907279999999999975e-01 -1.071929999999999966e-01 -8.534400000000000319e-02 4.906710000000000238e-01 1.067820000000000019e-01 8.543499999999999706e-02 8.429999999999999993e-04 3.199999999999999855e-05 -1.279999999999999942e-04 -4.040000000000000080e-04 2.599999999999999772e-04 -5.349999999999999938e-04 -4.911710000000000242e-01 -1.074319999999999997e-01 -8.577300000000000202e-02 4.189999999999999931e-04 6.359999999999999551e-04 1.579999999999999916e-04 4.903899999999999926e-01 1.072410000000000030e-01 8.528700000000000170e-02 -4.910470000000000113e-01 -1.066320000000000046e-01 -8.687100000000000377e-02 2.249999999999999938e-04 5.439999999999999957e-04 -2.369999999999999874e-04 4.907869999999999733e-01 1.071290000000000020e-01 8.511100000000000609e-02 -4.908029999999999893e-01 -1.065289999999999987e-01 -8.649600000000000344e-02 4.905579999999999941e-01 1.070389999999999953e-01 8.572399999999999465e-02 4.909950000000000148e-01 1.072509999999999991e-01 8.653299999999999881e-02 4.914890000000000092e-01 1.073169999999999957e-01 8.625900000000000234e-02 -4.902900000000000036e-01 -1.064459999999999990e-01 -8.524099999999999733e-02 1.150000000000000035e-04 3.339999999999999870e-04 -1.423000000000000003e-03 5.899999999999999754e-05 3.499999999999999964e-04 -8.059999999999999673e-04 -4.910280000000000200e-01 -1.064500000000000030e-01 -8.489099999999999424e-02 4.902279999999999971e-01 1.060419999999999974e-01 8.630799999999999583e-02 4.380000000000000213e-04 8.959999999999999866e-04 -1.474999999999999966e-03 -4.907190000000000163e-01 -1.067140000000000033e-01 -8.482399999999999662e-02 4.903910000000000213e-01 1.065659999999999941e-01 8.540200000000000569e-02 -8.399999999999999535e-05 1.165999999999999936e-03 -1.335999999999999948e-03 6.130000000000000466e-04 -1.289999999999999914e-04 -9.179999999999999792e-04 -4.903569999999999873e-01 -1.068329999999999974e-01 -8.611800000000000010e-02 4.899990000000000179e-01 1.061819999999999986e-01 8.508899999999999797e-02 4.901490000000000014e-01 1.074660000000000060e-01 8.581600000000000339e-02 1.930000000000000021e-04 -3.049999999999999868e-04 -1.196999999999999930e-03 -4.909310000000000063e-01 -1.070369999999999933e-01 -8.612200000000000411e-02 3.899999999999999929e-05 -6.099999999999999737e-04 -8.800000000000000313e-04 -4.904419999999999891e-01 -1.069149999999999961e-01 -8.594699999999999562e-02 4.901909999999999878e-01 1.067369999999999985e-01 8.497699999999999698e-02 4.906980000000000230e-01 1.074070000000000025e-01 8.528700000000000170e-02 1.540000000000000028e-04 -3.570000000000000040e-04 -9.169999999999999549e-04 -4.908629999999999938e-01 -1.071509999999999962e-01 -8.647000000000000519e-02 4.279999999999999950e-04 -2.010000000000000068e-04 -1.113999999999999973e-03 -4.907070000000000043e-01 -1.068909999999999999e-01 -8.592500000000000138e-02 4.902329999999999743e-01 1.065360000000000057e-01 8.518299999999999483e-02 4.900499999999999856e-01 1.071789999999999965e-01 8.604599999999999749e-02 -1.399999999999999979e-05 6.999999999999999895e-06 -1.714999999999999945e-03 -4.911650000000000182e-01 -1.064279999999999948e-01 -8.649400000000000144e-02 1.990000000000000124e-04 -1.013000000000000012e-03 3.869999999999999742e-04 1.190000000000000058e-04 -1.939999999999999993e-04 -1.119999999999999983e-04 -1.489999999999999897e-04 4.209999999999999875e-04 -5.649999999999999641e-04 3.390000000000000001e-04 1.669999999999999935e-04 -6.669999999999999497e-04 4.908009999999999873e-01 1.063429999999999931e-01 8.558000000000000329e-02 1.599999999999999928e-05 1.110000000000000011e-04 -3.910000000000000172e-04 8.599999999999999789e-04 -9.560000000000000355e-04 1.990000000000000124e-04 4.901460000000000261e-01 1.062209999999999960e-01 8.533699999999999619e-02 4.904789999999999983e-01 1.064279999999999948e-01 8.583100000000000451e-02 4.719999999999999803e-04 9.500000000000000523e-05 -1.252000000000000075e-03 2.090000000000000115e-04 -1.347000000000000107e-03 2.110000000000000059e-04 4.903140000000000276e-01 1.065659999999999941e-01 8.533599999999999519e-02 4.903890000000000193e-01 1.074019999999999975e-01 8.573100000000000165e-02 4.909529999999999728e-01 1.068950000000000039e-01 8.565499999999999503e-02 4.899809999999999999e-01 1.066529999999999978e-01 8.545800000000000618e-02 4.906530000000000058e-01 1.067970000000000030e-01 8.570400000000000240e-02 4.910379999999999745e-01 1.075429999999999997e-01 8.571700000000000153e-02 4.900900000000000256e-01 1.071470000000000061e-01 8.501899999999999735e-02 -4.903779999999999806e-01 -1.069559999999999955e-01 -8.543399999999999606e-02 -4.908919999999999950e-01 -1.068479999999999985e-01 -8.537699999999999456e-02 -4.907110000000000083e-01 -1.073569999999999941e-01 -8.511199999999999322e-02 -4.903270000000000128e-01 -1.069620000000000015e-01 -8.568099999999999328e-02 -4.911380000000000190e-01 -1.075289999999999996e-01 -8.613999999999999435e-02 -4.905579999999999941e-01 -1.072359999999999980e-01 -8.603500000000000036e-02 -4.908469999999999778e-01 -1.076600000000000057e-01 -8.660900000000000543e-02 -4.907560000000000255e-01 -1.072020000000000056e-01 -8.566799999999999415e-02 -4.913520000000000110e-01 -1.073520000000000030e-01 -8.623599999999999322e-02 -4.899950000000000139e-01 -1.056109999999999965e-01 -8.678700000000000303e-02 -4.911980000000000235e-01 -1.059960000000000069e-01 -8.698200000000000376e-02 9.899999999999999404e-05 4.400000000000000157e-04 -7.219999999999999855e-04 -4.906340000000000146e-01 -1.058700000000000058e-01 -8.627400000000000346e-02 -2.559999999999999884e-04 -5.019999999999999506e-04 9.280000000000000054e-04 5.659999999999999884e-04 5.389999999999999826e-04 -1.188999999999999953e-03 -4.904350000000000098e-01 -1.062319999999999931e-01 -8.620300000000000185e-02 4.904910000000000103e-01 1.061620000000000064e-01 8.643299999999999594e-02 -1.000000000000000082e-05 1.111999999999999924e-03 -1.039999999999999909e-03 6.440000000000000412e-04 -1.067999999999999939e-03 1.291000000000000047e-03 -4.900590000000000224e-01 -1.070180000000000020e-01 -8.538400000000000156e-02 4.900709999999999789e-01 1.059189999999999993e-01 8.665100000000000580e-02 4.904029999999999778e-01 1.065370000000000067e-01 8.674300000000000066e-02 5.550000000000000462e-04 -9.020000000000000240e-04 9.740000000000000394e-04 -4.907259999999999955e-01 -1.063100000000000017e-01 -8.673000000000000154e-02 -7.499999999999999343e-05 -1.152000000000000029e-03 1.387999999999999911e-03 -4.903850000000000153e-01 -1.070239999999999941e-01 -8.564800000000000191e-02 4.901809999999999778e-01 1.062189999999999940e-01 8.693900000000000239e-02 4.909290000000000043e-01 1.063429999999999931e-01 8.605599999999999361e-02 4.290000000000000193e-04 -6.040000000000000447e-04 1.046000000000000055e-03 -4.906789999999999763e-01 -1.066170000000000034e-01 -8.705599999999999450e-02 2.669999999999999847e-04 -9.079999999999999530e-04 8.530000000000000256e-04 -4.906320000000000126e-01 -1.069650000000000045e-01 -8.567700000000000315e-02 4.903609999999999913e-01 1.061119999999999980e-01 8.657199999999999618e-02 4.909169999999999923e-01 1.071629999999999944e-01 8.533699999999999619e-02 4.914020000000000055e-01 1.072850000000000054e-01 8.518799999999999983e-02 4.905070000000000263e-01 1.069080000000000030e-01 8.476999999999999813e-02