1.784425516330243511e+02 -2.753964465033276952e+02 -4.499650535268631870e+02 -2.753964465033276952e+02 -3.087112499397638743e+01 -8.628360654763135074e+01 -4.499650535268631870e+02 -8.628360654763135074e+01 5.040695874567593933e+02
1.786245161883168180e+02 -2.753160472166118780e+02 -4.500254070368861790e+02 -2.753160472166118780e+02 -3.083437440337297630e+01 -8.624528373924810865e+01 -4.500254070368861790e+02 -8.624528373924810865e+01 5.038553531315359919e+02
1.784126008843186639e+02 -2.752463783162434083e+02 -4.500429176124089850e+02 -2.752463783162434083e+02 -3.103878236747247854e+01 -8.622148429260600722e+01 -4.500429176124089850e+02 -8.622148429260600722e+01 5.031433153517754704e+02
1.793285553101224821e+02 -2.751510822660637245e+02 -4.499548537640165478e+02 -2.751510822660637245e+02 -3.014434767253001723e+01 -8.631636763561844816e+01 -4.499548537640165478e+02 -8.631636763561844816e+01 5.031703968030329861e+02
1.798102238796941208e+02 -2.750814133656952549e+02 -4.498614247224504084e+02 -2.750814133656952549e+02 -2.957740594112511090e+01 -8.644234158522692724e+01 -4.498614247224504084e+02 -8.644234158522692724e+01 5.026741459135534456e+02
1.806210755469166429e+02 -2.749949217350826416e+02 -4.496966562991247542e+02 -2.749949217350826416e+02 -2.862931931444612488e+01 -8.661487283384047942e+01 -4.496966562991247542e+02 -8.661487283384047942e+01 5.023813006993387944e+02
1.813604699160460711e+02 -2.749402675145114472e+02 -4.495135322332196210e+02 -2.749402675145114472e+02 -2.766232676896474274e+01 -8.684671599819792220e+01 -4.495135322332196210e+02 -8.684671599819792220e+01 5.017764685194400727e+02
1.823268139216933150e+02 -2.748554856707343674e+02 -4.492650432131183038e+02 -2.748554856707343674e+02 -2.646040558173300283e+01 -8.713187699801369490e+01 -4.492650432131183038e+02 -8.713187699801369490e+01 5.012998113940416829e+02
1.834857546053690669e+02 -2.748110312130098691e+02 -4.489912021813173055e+02 -2.748110312130098691e+02 -2.498428961369977586e+01 -8.744258653675160531e+01 -4.489912021813173055e+02 -8.744258653675160531e+01 5.008105961791268328e+02
1.847171745286947839e+02 -2.747611919093893675e+02 -4.486773285542974463e+02 -2.747611919093893675e+02 -2.339994610424784582e+01 -8.780413766794463015e+01 -4.486773285542974463e+02 -8.780413766794463015e+01 5.002488624191175859e+02
