1.758459999999999912e+00 3.810610000000000053e+00 3.242869999999999919e+00 6.441500000000000004e-01 4.790429999999999744e+00 1.539120000000000044e+00 1.185110000000000108e+00 1.319439999999999946e+00 1.539139999999999953e+00 3.184829999999999828e+00 3.810610000000000053e+00 3.242859999999999854e+00 2.070520000000000138e+00 4.790440000000000254e+00 1.539120000000000044e+00 2.611499999999999932e+00 1.319439999999999946e+00 1.539150000000000018e+00 4.611209999999999809e+00 3.810610000000000053e+00 3.242849999999999788e+00 3.496900000000000119e+00 4.790420000000000122e+00 1.539120000000000044e+00 4.037889999999999979e+00 1.319430000000000103e+00 1.539139999999999953e+00 1.936679999999999957e+00 5.294520000000000337e+00 6.339949999999999974e+00 2.477650000000000130e+00 1.823539999999999939e+00 6.339970000000000105e+00 3.363049999999999873e+00 5.294539999999999580e+00 6.339949999999999974e+00 3.904030000000000111e+00 1.823539999999999939e+00 6.339979999999999727e+00 4.789430000000000298e+00 5.294539999999999580e+00 6.339949999999999974e+00 5.330420000000000158e+00 1.823530000000000095e+00 6.339979999999999727e+00 3.051000000000000156e+00 4.314720000000000333e+00 8.043680000000000163e+00 4.477360000000000007e+00 4.314720000000000333e+00 8.043689999999999785e+00 5.903749999999999609e+00 4.314709999999999823e+00 8.043689999999999785e+00 4.343519999999999825e+00 4.818810000000000038e+00 1.284451999999999927e+01 3.229210000000000136e+00 5.798630000000000173e+00 1.114076999999999984e+01 3.770189999999999930e+00 2.327640000000000153e+00 1.114081000000000010e+01 5.769890000000000185e+00 4.818819999999999659e+00 1.284450999999999965e+01 4.655579999999999607e+00 5.798639999999999795e+00 1.114077999999999946e+01 5.196570000000000356e+00 2.327630000000000088e+00 1.114080000000000048e+01 7.196279999999999788e+00 4.818819999999999659e+00 1.284451999999999927e+01 6.081959999999999589e+00 5.798630000000000173e+00 1.114076999999999984e+01 6.622930000000000206e+00 2.327650000000000219e+00 1.114079000000000086e+01 1.217479999999999896e+00 7.281649999999999956e+00 3.242859999999999854e+00 2.102889999999999926e+00 1.075263999999999953e+01 3.242859999999999854e+00 1.529570000000000096e+00 8.261459999999999582e+00 1.539150000000000018e+00 2.643870000000000164e+00 7.281649999999999956e+00 3.242849999999999788e+00 3.529269999999999907e+00 1.075264999999999915e+01 3.242849999999999788e+00 2.955940000000000012e+00 8.261469999999999203e+00 1.539150000000000018e+00 4.070249999999999702e+00 7.281629999999999825e+00 3.242859999999999854e+00 4.955650000000000333e+00 1.075264999999999915e+01 3.242859999999999854e+00 4.382319999999999993e+00 8.261459999999999582e+00 1.539150000000000018e+00 2.822099999999999831e+00 8.765560000000000684e+00 6.339979999999999727e+00 4.248459999999999681e+00 8.765570000000000306e+00 6.339979999999999727e+00 5.674850000000000172e+00 8.765570000000000306e+00 6.339979999999999727e+00 2.510009999999999852e+00 7.785730000000000040e+00 8.043689999999999785e+00 3.395430000000000170e+00 1.125674000000000063e+01 8.043680000000000163e+00 3.936409999999999965e+00 7.785750000000000171e+00 8.043699999999999406e+00 4.821810000000000151e+00 1.125675000000000026e+01 8.043680000000000163e+00 5.362770000000000259e+00 7.785739999999999661e+00 8.043699999999999406e+00 6.248179999999999623e+00 1.125675000000000026e+01 8.043680000000000163e+00 3.802550000000000097e+00 8.289839999999999876e+00 1.284450999999999965e+01 4.687960000000000349e+00 1.176084999999999958e+01 1.284453000000000067e+01 4.114630000000000010e+00 9.269669999999999632e+00 1.114081000000000010e+01 5.228919999999999568e+00 8.289849999999999497e+00 1.284450999999999965e+01 6.114340000000000330e+00 1.176084999999999958e+01 1.284451999999999927e+01 5.541000000000000369e+00 9.269679999999999254e+00 1.114081000000000010e+01 6.655310000000000059e+00 8.289849999999999497e+00 1.284451999999999927e+01 7.540709999999999802e+00 1.176084999999999958e+01 1.284450999999999965e+01 6.967380000000000351e+00 9.269660000000000011e+00 1.114081000000000010e+01 9.885800000000000143e-01 1.173246999999999929e+01 1.539120000000000044e+00 2.414960000000000218e+00 1.173245000000000005e+01 1.539109999999999978e+00 3.841330000000000133e+00 1.173245999999999967e+01 1.539120000000000044e+00 1.561930000000000041e+00 1.422367000000000026e+01 3.242859999999999854e+00 1.873990000000000045e+00 1.520350000000000001e+01 1.539150000000000018e+00 2.988309999999999800e+00 1.422367000000000026e+01 3.242859999999999854e+00 3.300370000000000026e+00 1.520349000000000039e+01 1.539139999999999953e+00 4.414670000000000094e+00 1.422366000000000064e+01 3.242859999999999854e+00 4.726740000000000386e+00 1.520349000000000039e+01 1.539150000000000018e+00 2.281109999999999971e+00 1.223656000000000077e+01 6.339940000000000353e+00 3.707489999999999952e+00 1.223657000000000039e+01 6.339949999999999974e+00 5.133860000000000312e+00 1.223656000000000077e+01 6.339949999999999974e+00 3.166519999999999779e+00 1.570759999999999934e+01 6.339970000000000105e+00 4.592909999999999826e+00 1.570761000000000074e+01 6.339979999999999727e+00 6.019280000000000186e+00 1.570761000000000074e+01 6.339979999999999727e+00 2.854459999999999997e+00 1.472777999999999921e+01 8.043699999999999406e+00 4.280829999999999913e+00 1.472777999999999921e+01 8.043680000000000163e+00 5.707209999999999894e+00 1.472777999999999921e+01 8.043689999999999785e+00 3.573640000000000150e+00 1.274066999999999972e+01 1.114076999999999984e+01 5.000029999999999752e+00 1.274066000000000010e+01 1.114076999999999984e+01 6.426400000000000112e+00 1.274066999999999972e+01 1.114076999999999984e+01 4.146980000000000111e+00 1.523188000000000031e+01 1.284453000000000067e+01 4.459050000000000402e+00 1.621169000000000082e+01 1.114080000000000048e+01 5.573360000000000092e+00 1.523188999999999993e+01 1.284451999999999927e+01 5.885430000000000383e+00 1.621169000000000082e+01 1.114079000000000086e+01 6.999729999999999563e+00 1.523188000000000031e+01 1.284451999999999927e+01 7.311819999999999986e+00 1.621170000000000044e+01 1.114081000000000010e+01 1.906360000000000054e+00 2.116570000000000107e+01 3.242859999999999854e+00 3.332739999999999814e+00 2.116570000000000107e+01 3.242859999999999854e+00 4.759109999999999729e+00 2.116571000000000069e+01 3.242859999999999854e+00 2.447340000000000071e+00 1.769466999999999857e+01 3.242869999999999919e+00 1.333010000000000028e+00 1.867448999999999870e+01 1.539120000000000044e+00 3.873709999999999987e+00 1.769468000000000174e+01 3.242849999999999788e+00 2.759399999999999853e+00 1.867447999999999908e+01 1.539130000000000109e+00 5.300080000000000346e+00 1.769468000000000174e+01 3.242849999999999788e+00 4.185780000000000278e+00 1.867449999999999832e+01 1.539120000000000044e+00 2.625550000000000050e+00 1.917859999999999943e+01 6.339940000000000353e+00 4.051919999999999966e+00 1.917859999999999943e+01 6.339949999999999974e+00 5.478309999999999569e+00 1.917859999999999943e+01 6.339940000000000353e+00 3.198890000000000011e+00 2.166980999999999824e+01 8.043699999999999406e+00 4.625270000000000437e+00 2.166980999999999824e+01 8.043680000000000163e+00 6.051660000000000039e+00 2.166980999999999824e+01 8.043699999999999406e+00 3.739869999999999806e+00 1.819877999999999929e+01 8.043689999999999785e+00 5.166240000000000165e+00 1.819876999999999967e+01 8.043689999999999785e+00 6.592609999999999637e+00 1.819877999999999929e+01 8.043689999999999785e+00 4.491430000000000256e+00 2.217390999999999934e+01 1.284451999999999927e+01 5.917799999999999727e+00 2.217391999999999896e+01 1.284451999999999927e+01 7.344179999999999708e+00 2.217390999999999934e+01 1.284451999999999927e+01 5.032390000000000363e+00 1.870288000000000039e+01 1.284450999999999965e+01 3.918070000000000164e+00 1.968270000000000053e+01 1.114077999999999946e+01 6.458759999999999835e+00 1.870288000000000039e+01 1.284451999999999927e+01 5.344459999999999766e+00 1.968270000000000053e+01 1.114076999999999984e+01 7.885150000000000325e+00 1.870288000000000039e+01 1.284453000000000067e+01 6.770830000000000126e+00 1.968269000000000091e+01 1.114076999999999984e+01 7.585699999999999665e-01 2.565020000000000078e+00 2.390989999999999949e+00 1.111750000000000016e+00 3.559359999999999857e+00 8.399400000000000199e-01 2.263600000000000056e-01 8.828999999999999349e-02 8.399299999999999544e-01 2.184950000000000170e+00 2.565040000000000209e+00 2.390969999999999818e+00 2.538139999999999841e+00 3.559349999999999792e+00 8.399499999999999744e-01 1.652740000000000098e+00 8.828999999999999349e-02 8.399299999999999544e-01 3.611340000000000217e+00 2.565030000000000143e+00 2.390979999999999883e+00 3.964510000000000201e+00 3.559359999999999857e+00 8.399299999999999544e-01 3.079099999999999948e+00 8.828999999999999349e-02 8.399400000000000199e-01 5.570020000000000415e+00 5.041690000000000005e+00 3.942159999999999886e+00 1.831870000000000109e+00 1.570689999999999920e+00 3.942200000000000149e+00 2.717270000000000074e+00 5.041690000000000005e+00 3.942159999999999886e+00 3.258249999999999869e+00 1.570699999999999985e+00 3.942190000000000083e+00 4.143629999999999924e+00 5.041690000000000005e+00 3.942140000000000200e+00 4.684619999999999784e+00 1.570689999999999920e+00 3.942200000000000149e+00 2.051099999999999923e+00 3.069119999999999848e+00 7.191810000000000258e+00 2.404279999999999973e+00 4.063460000000000072e+00 5.640769999999999840e+00 1.518869999999999942e+00 5.924000000000000377e-01 5.640769999999999840e+00 3.477500000000000036e+00 3.069139999999999979e+00 7.191810000000000258e+00 3.830670000000000019e+00 4.063449999999999562e+00 5.640769999999999840e+00 2.945269999999999833e+00 5.923800000000000177e-01 5.640769999999999840e+00 4.903859999999999886e+00 3.069139999999999979e+00 7.191810000000000258e+00 5.257039999999999935e+00 4.063449999999999562e+00 5.640769999999999840e+00 4.371629999999999683e+00 5.923899999999999721e-01 5.640760000000000218e+00 6.862549999999999706e+00 5.545779999999999710e+00 8.742979999999999308e+00 3.124400000000000066e+00 2.074800000000000200e+00 8.743040000000000589e+00 4.009789999999999743e+00 5.545790000000000219e+00 8.742979999999999308e+00 4.550790000000000113e+00 2.074800000000000200e+00 8.743040000000000589e+00 5.436180000000000234e+00 5.545779999999999710e+00 8.742979999999999308e+00 5.977159999999999584e+00 2.074809999999999821e+00 8.743019999999999570e+00 3.696810000000000151e+00 4.567560000000000286e+00 1.044159999999999933e+01 2.811420000000000030e+00 1.096500000000000030e+00 1.044159999999999933e+01 5.123199999999999754e+00 4.567549999999999777e+00 1.044159999999999933e+01 4.237800000000000011e+00 1.096489999999999965e+00 1.044159999999999933e+01 6.549559999999999604e+00 4.567569999999999908e+00 1.044159999999999933e+01 5.664170000000000371e+00 1.096489999999999965e+00 1.044159999999999933e+01 3.343640000000000168e+00 3.573220000000000063e+00 1.199263000000000012e+01 8.155070000000000263e+00 6.049890000000000434e+00 1.354382000000000019e+01 4.416929999999999801e+00 2.578910000000000036e+00 1.354385000000000083e+01 4.770019999999999705e+00 3.573240000000000194e+00 1.199263999999999974e+01 5.302330000000000432e+00 6.049890000000000434e+00 1.354381000000000057e+01 5.843300000000000161e+00 2.578910000000000036e+00 1.354385000000000083e+01 6.196390000000000065e+00 3.573230000000000128e+00 1.199263000000000012e+01 6.728699999999999903e+00 6.049900000000000055e+00 1.354381000000000057e+01 7.269680000000000142e+00 2.578899999999999970e+00 1.354386000000000045e+01 1.644009999999999971e+00 6.036059999999999981e+00 2.391030000000000211e+00 3.070390000000000175e+00 6.036059999999999981e+00 2.391039999999999832e+00 4.496769999999999712e+00 6.036050000000000360e+00 2.391030000000000211e+00 1.102999999999999980e+00 9.507059999999999178e+00 2.390989999999999949e+00 5.707900000000000196e-01 7.030310000000000059e+00 8.399400000000000199e-01 2.529389999999999805e+00 9.507070000000000576e+00 2.390979999999999883e+00 1.997160000000000046e+00 7.030310000000000059e+00 8.399400000000000199e-01 3.955779999999999852e+00 9.507070000000000576e+00 2.390969999999999818e+00 3.423550000000000093e+00 7.030319999999999681e+00 8.399199999999999999e-01 2.176309999999999967e+00 8.512729999999999464e+00 3.942200000000000149e+00 3.602669999999999817e+00 8.512729999999999464e+00 3.942190000000000083e+00 5.029060000000000308e+00 8.512719999999999843e+00 3.942200000000000149e+00 2.936529999999999863e+00 6.540149999999999686e+00 7.191869999999999763e+00 4.362919999999999909e+00 6.540160000000000196e+00 7.191869999999999763e+00 5.789299999999999891e+00 6.540160000000000196e+00 7.191860000000000142e+00 2.395540000000000003e+00 1.001116999999999990e+01 7.191810000000000258e+00 1.863320000000000087e+00 7.534410000000000274e+00 5.640760000000000218e+00 3.821930000000000049e+00 1.001116000000000028e+01 7.191799999999999748e+00 3.289689999999999781e+00 7.534419999999999895e+00 5.640769999999999840e+00 5.248310000000000031e+00 1.001116999999999990e+01 7.191810000000000258e+00 4.716059999999999697e+00 7.534419999999999895e+00 5.640760000000000218e+00 3.468830000000000080e+00 9.016840000000000188e+00 8.743019999999999570e+00 4.895209999999999617e+00 9.016830000000000567e+00 8.743029999999999191e+00 6.321600000000000108e+00 9.016819999999999169e+00 8.743019999999999570e+00 3.155850000000000044e+00 8.038529999999999731e+00 1.044159999999999933e+01 4.582220000000000404e+00 8.038529999999999731e+00 1.044158999999999970e+01 6.008600000000000385e+00 8.038520000000000110e+00 1.044159999999999933e+01 4.229070000000000107e+00 7.044249999999999901e+00 1.199269999999999925e+01 5.655439999999999579e+00 7.044249999999999901e+00 1.199269999999999925e+01 7.081830000000000069e+00 7.044260000000000410e+00 1.199269999999999925e+01 3.688079999999999803e+00 1.051526999999999923e+01 1.199263999999999974e+01 4.761370000000000324e+00 9.520929999999999893e+00 1.354385000000000083e+01 5.114460000000000228e+00 1.051525999999999961e+01 1.199263999999999974e+01 6.187739999999999796e+00 9.520929999999999893e+00 1.354386000000000045e+01 6.540840000000000209e+00 1.051525999999999961e+01 1.199263000000000012e+01 7.614110000000000156e+00 9.520929999999999893e+00 1.354385000000000083e+01 1.456190000000000095e+00 1.050139000000000067e+01 8.399400000000000199e-01 1.988450000000000051e+00 1.297808999999999990e+01 2.391039999999999832e+00 2.882569999999999855e+00 1.050137999999999927e+01 8.399499999999999744e-01 3.414820000000000189e+00 1.297808000000000028e+01 2.391049999999999898e+00 4.308950000000000280e+00 1.050139000000000067e+01 8.399400000000000199e-01 4.841190000000000104e+00 1.297808000000000028e+01 2.391039999999999832e+00 9.152200000000000335e-01 1.397236000000000011e+01 8.399299999999999544e-01 2.341600000000000126e+00 1.397235000000000049e+01 8.399299999999999544e-01 3.767990000000000173e+00 1.397236000000000011e+01 8.399299999999999544e-01 5.914450000000000429e+00 1.198371999999999993e+01 3.942159999999999886e+00 3.061690000000000023e+00 1.198371999999999993e+01 3.942149999999999821e+00 4.488069999999999560e+00 1.198371999999999993e+01 3.942149999999999821e+00 2.520729999999999915e+00 1.545476000000000028e+01 3.942200000000000149e+00 3.947119999999999962e+00 1.545475000000000065e+01 3.942200000000000149e+00 5.373490000000000322e+00 1.545476999999999990e+01 3.942210000000000214e+00 2.748730000000000118e+00 1.100548000000000037e+01 5.640769999999999840e+00 3.280980000000000008e+00 1.348217999999999961e+01 7.191869999999999763e+00 4.175099999999999589e+00 1.100548999999999999e+01 5.640769999999999840e+00 4.707349999999999923e+00 1.348220000000000063e+01 7.191869999999999763e+00 5.601469999999999949e+00 1.100548999999999999e+01 5.640780000000000349e+00 6.133720000000000283e+00 1.348217999999999961e+01 7.191869999999999763e+00 2.207749999999999879e+00 1.447644999999999982e+01 5.640760000000000218e+00 3.634129999999999860e+00 1.447644999999999982e+01 5.640769999999999840e+00 5.060500000000000220e+00 1.447645999999999944e+01 5.640749999999999709e+00 7.206990000000000229e+00 1.248783000000000065e+01 8.742990000000000705e+00 4.354239999999999888e+00 1.248783000000000065e+01 8.742969999999999686e+00 5.780599999999999739e+00 1.248781999999999925e+01 8.742990000000000705e+00 3.813270000000000159e+00 1.595884999999999998e+01 8.743029999999999191e+00 5.239639999999999631e+00 1.595885999999999960e+01 8.743029999999999191e+00 6.666030000000000122e+00 1.595885999999999960e+01 8.743040000000000589e+00 4.041260000000000296e+00 1.150957999999999970e+01 1.044159999999999933e+01 5.467620000000000147e+00 1.150960000000000072e+01 1.044159999999999933e+01 6.894000000000000128e+00 1.150958999999999932e+01 1.044159999999999933e+01 3.500290000000000123e+00 1.498054999999999914e+01 1.044158999999999970e+01 4.926660000000000039e+00 1.498056000000000054e+01 1.044158999999999970e+01 6.353049999999999642e+00 1.498056000000000054e+01 1.044159999999999933e+01 8.499510000000000787e+00 1.299192999999999998e+01 1.354382000000000019e+01 4.573509999999999742e+00 1.398629999999999995e+01 1.199269999999999925e+01 5.646749999999999936e+00 1.299192999999999998e+01 1.354381000000000057e+01 5.999880000000000102e+00 1.398629999999999995e+01 1.199269999999999925e+01 7.073129999999999917e+00 1.299192000000000036e+01 1.354382000000000019e+01 7.426260000000000083e+00 1.398629999999999995e+01 1.199268999999999963e+01 5.105800000000000338e+00 1.646296999999999855e+01 1.354386000000000045e+01 6.532180000000000319e+00 1.646296999999999855e+01 1.354386000000000045e+01 7.958560000000000301e+00 1.646295999999999893e+01 1.354385000000000083e+01 1.447440000000000060e+00 1.644910000000000139e+01 2.390969999999999818e+00 1.800640000000000018e+00 1.744341999999999970e+01 8.399499999999999744e-01 2.332870000000000221e+00 1.992012000000000072e+01 2.391030000000000211e+00 2.873829999999999885e+00 1.644909000000000177e+01 2.390969999999999818e+00 3.227009999999999934e+00 1.744342999999999932e+01 8.399400000000000199e-01 3.759250000000000203e+00 1.992012000000000072e+01 2.391039999999999832e+00 4.300209999999999866e+00 1.644909000000000177e+01 2.390979999999999883e+00 4.653380000000000294e+00 1.744341999999999970e+01 8.399499999999999744e-01 5.185640000000000249e+00 1.992011000000000109e+01 2.391039999999999832e+00 6.258890000000000065e+00 1.892576000000000036e+01 3.942159999999999886e+00 3.406140000000000168e+00 1.892575000000000074e+01 3.942149999999999821e+00 4.832510000000000083e+00 1.892574000000000112e+01 3.942159999999999886e+00 2.739970000000000017e+00 1.695318999999999932e+01 7.191810000000000258e+00 3.093150000000000066e+00 1.794753000000000043e+01 5.640760000000000218e+00 3.625410000000000021e+00 2.042420999999999864e+01 7.191860000000000142e+00 4.166350000000000442e+00 1.695318999999999932e+01 7.191819999999999879e+00 4.519529999999999603e+00 1.794752000000000081e+01 5.640780000000000349e+00 5.051779999999999937e+00 2.042421999999999827e+01 7.191869999999999763e+00 5.592740000000000045e+00 1.695318999999999932e+01 7.191810000000000258e+00 5.945899999999999963e+00 1.794752000000000081e+01 5.640769999999999840e+00 6.478159999999999918e+00 2.042421999999999827e+01 7.191869999999999763e+00 7.551420000000000243e+00 1.942986000000000146e+01 8.742969999999999686e+00 4.698669999999999902e+00 1.942984999999999829e+01 8.742979999999999308e+00 6.125040000000000262e+00 1.942983999999999867e+01 8.742990000000000705e+00 4.385679999999999801e+00 1.845161999999999836e+01 1.044159999999999933e+01 5.812059999999999782e+00 1.845161999999999836e+01 1.044159999999999933e+01 7.238439999999999763e+00 1.845163000000000153e+01 1.044159999999999933e+01 4.032519999999999882e+00 1.745729000000000042e+01 1.199263999999999974e+01 8.843949999999999534e+00 1.993394999999999939e+01 1.354382000000000019e+01 4.917939999999999756e+00 2.092831999999999937e+01 1.199269999999999925e+01 5.458890000000000242e+00 1.745730000000000004e+01 1.199263000000000012e+01 5.991189999999999571e+00 1.993394999999999939e+01 1.354381000000000057e+01 6.344319999999999737e+00 2.092830999999999975e+01 1.199268999999999963e+01 6.885270000000000223e+00 1.745729000000000042e+01 1.199263000000000012e+01 7.417580000000000062e+00 1.993395999999999901e+01 1.354381000000000057e+01 7.770690000000000097e+00 2.092832999999999899e+01 1.199268999999999963e+01