1.698209541610000088e+03
1.697330978779999896e+03
1.694626787140000033e+03
1.690110496620000049e+03
1.683810840769999913e+03
1.675780983939999942e+03
1.666114534920000096e+03
1.654956471010000087e+03
1.642512804440000082e+03
1.629047791189999998e+03
