1.280294999999999961e+00 -4.962076999999999849e+00 2.140052999999999983e+00 -1.280356999999999967e+00 4.969738999999999685e+00 -2.136391000000000151e+00 -1.279096000000000011e+00 4.962481999999999616e+00 -2.140375999999999834e+00 1.280658000000000074e+00 -4.962347000000000286e+00 2.139771000000000090e+00 -1.280367999999999951e+00 4.969890999999999615e+00 -2.136540000000000106e+00 -1.279509999999999925e+00 4.961687000000000403e+00 -2.140537999999999830e+00 1.281174000000000035e+00 -4.961241000000000234e+00 2.140090999999999966e+00 -1.281139000000000028e+00 4.971690999999999860e+00 -2.135116000000000014e+00 -1.279956000000000094e+00 4.962416000000000160e+00 -2.140270999999999813e+00 -1.281077000000000021e+00 4.970709000000000266e+00 -2.135726000000000013e+00 -1.278764000000000012e+00 4.961799000000000071e+00 -2.141017999999999866e+00 -1.280027999999999944e+00 4.969743000000000244e+00 -2.137154999999999916e+00 -1.279879999999999907e+00 4.961689999999999934e+00 -2.140753999999999824e+00 -1.280658999999999992e+00 4.969877999999999574e+00 -2.136845000000000105e+00 -1.280283999999999978e+00 4.962779000000000273e+00 -2.139787999999999801e+00 1.280710000000000015e+00 -4.962792999999999566e+00 2.138965999999999923e+00 1.281361999999999890e+00 -4.963695000000000412e+00 2.138466000000000200e+00 1.281177999999999928e+00 -4.963110000000000355e+00 2.139333000000000151e+00 1.280361000000000082e+00 -4.962470999999999854e+00 2.139507000000000048e+00 -1.280983999999999901e+00 4.971766999999999825e+00 -2.135419000000000178e+00 -1.279435000000000100e+00 4.961221000000000103e+00 -2.140817999999999888e+00 1.281994000000000078e+00 -4.963358000000000381e+00 2.139003000000000210e+00 -1.280558000000000085e+00 4.969807000000000308e+00 -2.136598000000000219e+00 -1.279981000000000035e+00 4.962899000000000171e+00 -2.139717999999999787e+00 1.280572000000000044e+00 -4.963173000000000279e+00 2.138965999999999923e+00 -1.281004000000000032e+00 4.972415999999999947e+00 -2.135161999999999782e+00 -1.279322999999999988e+00 4.961397999999999975e+00 -2.141218999999999983e+00 1.280580999999999969e+00 -4.958867999999999832e+00 2.139581999999999873e+00 1.280343999999999927e+00 -4.962180000000000035e+00 2.140071999999999974e+00 -1.279562000000000088e+00 4.962386999999999659e+00 -2.140674999999999883e+00 1.280003000000000002e+00 -4.958553000000000210e+00 2.139620999999999995e+00 1.280958000000000041e+00 -4.962888000000000410e+00 2.139534999999999965e+00 -1.279571000000000014e+00 4.961884999999999657e+00 -2.140622000000000025e+00 1.279979999999999896e+00 -4.957832999999999934e+00 2.140503999999999962e+00 1.280804999999999971e+00 -4.962800999999999796e+00 2.139308000000000209e+00 -1.279678000000000093e+00 4.962162000000000184e+00 -2.140236999999999945e+00 -1.279832999999999998e+00 4.962430999999999592e+00 -2.140538999999999970e+00 -1.278777999999999970e+00 4.961494000000000071e+00 -2.141251000000000015e+00 -1.279509999999999925e+00 4.961368000000000222e+00 -2.141207999999999778e+00 1.281036999999999981e+00 -4.958429999999999893e+00 2.140617999999999910e+00 1.280758999999999981e+00 -4.962576000000000320e+00 2.139921000000000184e+00 1.279722999999999944e+00 -4.959000999999999770e+00 2.140150000000000219e+00 1.280348999999999959e+00 -4.962900000000000311e+00 2.139699999999999935e+00 1.279913999999999996e+00 -4.958872000000000391e+00 2.140318999999999861e+00 1.281036999999999981e+00 -4.962710999999999650e+00 2.139448999999999934e+00 1.280269000000000101e+00 -4.957791000000000281e+00 2.140626999999999835e+00 1.280737000000000014e+00 -4.963419000000000025e+00 2.139529000000000014e+00 -1.279925999999999897e+00 4.962405999999999651e+00 -2.140419000000000072e+00 1.280874000000000068e+00 -4.958486999999999867e+00 2.140028000000000041e+00 1.280688999999999966e+00 -4.963405999999999985e+00 2.139048999999999978e+00 -1.279436000000000018e+00 4.961198999999999693e+00 -2.141509999999999803e+00 1.279687999999999937e+00 -4.958916999999999575e+00 2.139845000000000219e+00 1.281006000000000089e+00 -4.962468999999999575e+00 2.139492000000000171e+00 -1.279252999999999973e+00 4.962252999999999581e+00 -2.140481999999999996e+00 -1.280140000000000056e+00 4.969867999999999952e+00 -2.136652999999999913e+00 -1.281484000000000067e+00 4.971751000000000253e+00 -2.135817999999999994e+00 -1.280751999999999891e+00 4.970591999999999899e+00 -2.136489000000000082e+00 1.279568999999999956e+00 -4.957996999999999765e+00 2.140022999999999787e+00 -1.279538999999999982e+00 4.961932000000000009e+00 -2.140201999999999938e+00 1.279873999999999956e+00 -4.958600999999999814e+00 2.139810000000000212e+00 -1.280381999999999909e+00 4.962817000000000256e+00 -2.139632999999999896e+00 1.281082000000000054e+00 -4.958190000000000097e+00 2.140241000000000060e+00 -1.279436000000000018e+00 4.961621000000000059e+00 -2.140235000000000110e+00 -1.280597999999999903e+00 4.971401000000000181e+00 -2.136146000000000100e+00 -1.280688000000000049e+00 4.969962999999999909e+00 -2.136829000000000089e+00 -1.280575999999999937e+00 4.971373999999999960e+00 -2.135851999999999862e+00 -1.279763999999999902e+00 4.962382999999999988e+00 -2.140716999999999981e+00 -1.280073000000000016e+00 4.961806000000000161e+00 -2.140735999999999972e+00 -1.279465000000000074e+00 4.961272000000000126e+00 -2.141023999999999816e+00 1.279846999999999957e+00 -4.959903999999999868e+00 2.139107999999999787e+00 1.280132999999999965e+00 -4.958340999999999887e+00 2.139817999999999998e+00 1.280510999999999955e+00 -4.958806000000000047e+00 2.139851000000000170e+00 -1.280192999999999914e+00 4.970415000000000028e+00 -2.136559999999999793e+00 -1.281384000000000079e+00 4.972965000000000302e+00 -2.134646000000000043e+00 -1.280791000000000013e+00 4.971236000000000210e+00 -2.135727000000000153e+00 1.280459999999999932e+00 -4.959819999999999673e+00 2.139537999999999940e+00 -1.279997000000000051e+00 4.963852000000000153e+00 -2.139724000000000181e+00 1.280181000000000013e+00 -4.958484999999999587e+00 2.139752000000000098e+00 -1.279800999999999966e+00 4.963721999999999746e+00 -2.139809000000000072e+00 1.280073999999999934e+00 -4.959291999999999589e+00 2.139664999999999928e+00 -1.279020000000000046e+00 4.961752999999999858e+00 -2.140887000000000207e+00 1.280156000000000072e+00 -4.957880000000000287e+00 2.140747000000000178e+00 1.279927000000000037e+00 -4.958213999999999899e+00 2.140451999999999799e+00 1.280443999999999916e+00 -4.958993999999999680e+00 2.139765999999999835e+00 1.280346999999999902e+00 -4.962169000000000274e+00 2.139599000000000029e+00 -1.280464000000000047e+00 4.971218999999999610e+00 -2.136020999999999948e+00 1.281293999999999933e+00 -4.963211000000000261e+00 2.138300999999999785e+00 -1.280771000000000104e+00 4.971915000000000084e+00 -2.134942999999999813e+00 1.281522000000000050e+00 -4.962265999999999622e+00 2.139034999999999798e+00 -1.280818999999999930e+00 4.972072999999999965e+00 -2.135683000000000220e+00 -1.280742999999999965e+00 4.971344000000000207e+00 -2.135676000000000130e+00 -1.280472999999999972e+00 4.970721000000000167e+00 -2.136039999999999939e+00 -1.280782000000000087e+00 4.971436999999999884e+00 -2.135874999999999968e+00 1.280712000000000073e+00 -4.959994000000000014e+00 2.139663999999999788e+00 1.280086999999999975e+00 -4.957754000000000438e+00 2.140362999999999793e+00 1.279932999999999987e+00 -4.959379000000000204e+00 2.139702999999999911e+00 1.280766000000000071e+00 -4.962511000000000116e+00 2.138827000000000034e+00 1.280553999999999970e+00 -4.961795999999999651e+00 2.139206999999999859e+00 1.281358999999999915e+00 -4.962850000000000428e+00 2.138666999999999874e+00 1.280062000000000033e+00 -4.958929000000000364e+00 2.139644999999999797e+00 1.280364000000000058e+00 -4.959637999999999991e+00 2.139320000000000110e+00 1.279554999999999998e+00 -4.958655000000000257e+00 2.140280000000000182e+00 1.280756000000000006e+00 -4.962317999999999785e+00 2.138841000000000214e+00 -1.279862999999999973e+00 4.970774999999999721e+00 -2.136057000000000095e+00 1.281457000000000068e+00 -4.962882999999999711e+00 2.138783999999999796e+00 -1.280952000000000091e+00 4.971238999999999741e+00 -2.136347000000000218e+00 1.279921000000000086e+00 -4.962537000000000198e+00 2.139098999999999862e+00 -1.280580000000000052e+00 4.971987999999999630e+00 -2.135590999999999795e+00 3.821000000000000178e-03 -3.549000000000000071e-03 4.636000000000000364e-03 3.065573000000000103e+00 -1.665282399999999896e+01 -1.546001900000000084e+01 3.061436000000000046e+00 -1.665197699999999870e+01 -1.545745199999999997e+01 4.659999999999999971e-04 -2.752000000000000106e-03 4.132000000000000256e-03 3.058756999999999948e+00 -1.665311300000000116e+01 -1.545976100000000031e+01 3.059893999999999892e+00 -1.665107300000000023e+01 -1.545702700000000007e+01 -6.512000000000000427e-03 -3.122999999999999908e-03 4.079000000000000160e-03 3.066157000000000021e+00 -1.665287000000000006e+01 -1.546044299999999971e+01 3.067400999999999822e+00 -1.665126899999999921e+01 -1.545629600000000003e+01 -3.063658999999999910e+00 1.665046699999999902e+01 1.545750899999999994e+01 -3.063909999999999911e+00 1.665110200000000162e+01 1.545457799999999970e+01 -3.066860999999999837e+00 1.665069799999999844e+01 1.545725900000000053e+01 -3.062068000000000012e+00 1.665175599999999889e+01 1.545459400000000016e+01 -3.056948999999999916e+00 1.665016400000000019e+01 1.545656499999999944e+01 -3.060837999999999948e+00 1.665110400000000013e+01 1.545492600000000039e+01 3.959999999999999978e-03 -3.883999999999999866e-03 3.213000000000000144e-03 3.067959000000000103e+00 -1.665403999999999840e+01 -1.546240899999999918e+01 3.067375000000000185e+00 -1.665147599999999883e+01 -1.545778600000000047e+01 -8.439999999999999586e-03 -3.661999999999999891e-03 4.212999999999999731e-03 3.057481999999999811e+00 -1.665354699999999966e+01 -1.546169800000000016e+01 3.056811999999999863e+00 -1.665139299999999878e+01 -1.545760800000000046e+01 2.011000000000000201e-03 -3.556000000000000133e-03 3.275999999999999832e-03 3.065617000000000036e+00 -1.665340600000000038e+01 -1.546169899999999942e+01 3.064902000000000015e+00 -1.665072100000000077e+01 -1.545747099999999996e+01 -3.064008999999999983e+00 1.665239700000000056e+01 1.545701299999999989e+01 -3.058832000000000217e+00 1.664946700000000135e+01 1.545476900000000064e+01 -3.059918000000000138e+00 1.665347600000000128e+01 1.545764899999999997e+01 -3.065078000000000191e+00 1.664973799999999926e+01 1.545501900000000006e+01 -3.064553000000000083e+00 1.665255000000000152e+01 1.545679400000000037e+01 -3.063712000000000213e+00 1.665039600000000064e+01 1.545452900000000085e+01 3.066768999999999856e+00 -1.665449399999999969e+01 -1.546187499999999915e+01 3.060690999999999828e+00 -1.665178399999999925e+01 -1.545783899999999988e+01 3.056922999999999835e+00 -1.665421500000000066e+01 -1.546155800000000013e+01 3.059855999999999909e+00 -1.665220499999999859e+01 -1.545798899999999954e+01 3.068160999999999916e+00 -1.665405499999999961e+01 -1.546223600000000076e+01 3.068547000000000136e+00 -1.665286199999999894e+01 -1.545841500000000046e+01 1.793000000000000106e-03 -3.830000000000000071e-03 5.525000000000000397e-03 -3.056414999999999882e+00 1.665118999999999971e+01 1.545943699999999943e+01 -3.066159999999999997e+00 1.665189900000000023e+01 1.545522500000000043e+01 -4.139999999999999583e-03 -3.631000000000000113e-03 5.525999999999999662e-03 -3.066078000000000081e+00 1.665184999999999960e+01 1.545902599999999971e+01 -3.058594999999999953e+00 1.665144000000000091e+01 1.545477900000000027e+01 -1.359999999999999989e-04 -3.285000000000000159e-03 5.821999999999999918e-03 -3.065529999999999866e+00 1.665183700000000044e+01 1.545867999999999931e+01 -3.062186000000000075e+00 1.665111299999999872e+01 1.545562199999999997e+01 4.279999999999999950e-04 -5.980000000000000072e-03 1.299000000000000024e-03 1.164000000000000104e-03 -6.400999999999999572e-03 2.059999999999999928e-04 -3.849999999999999798e-04 -6.492000000000000375e-03 4.949999999999999973e-04 5.584999999999999687e-03 -5.412000000000000144e-03 4.982000000000000317e-03 3.061757000000000062e+00 -1.665008100000000013e+01 -1.545739799999999953e+01 -1.667999999999999995e-03 -5.085000000000000110e-03 4.211000000000000333e-03 3.066889999999999894e+00 -1.665025100000000080e+01 -1.545746600000000015e+01 -5.866999999999999819e-03 -4.673000000000000070e-03 3.950999999999999651e-03 3.060292000000000012e+00 -1.664971399999999946e+01 -1.545791400000000060e+01 -3.068328999999999862e+00 1.665181700000000120e+01 1.545530399999999993e+01 -3.057320999999999955e+00 1.665143399999999829e+01 1.545436800000000055e+01 -3.061272000000000215e+00 1.665168299999999846e+01 1.545575799999999944e+01 4.606999999999999984e-03 -4.406000000000000194e-03 1.281000000000000021e-03 -1.258999999999999920e-03 -3.592999999999999840e-03 1.430000000000000064e-03 -2.935000000000000109e-03 -3.812999999999999983e-03 1.840000000000000001e-04 5.873999999999999881e-03 -4.327000000000000117e-03 5.566999999999999900e-03 3.058139000000000163e+00 -1.664913599999999860e+01 -1.545772900000000050e+01 -4.362000000000000426e-03 -4.152999999999999574e-03 5.472999999999999567e-03 3.064052999999999916e+00 -1.664969800000000077e+01 -1.545740699999999990e+01 -3.867999999999999911e-03 -4.227999999999999987e-03 5.943000000000000366e-03 3.066262000000000043e+00 -1.664949000000000012e+01 -1.545759499999999953e+01 -3.058984999999999843e+00 1.665135899999999936e+01 1.545411099999999927e+01 -3.062787999999999844e+00 1.665172600000000003e+01 1.545474600000000009e+01 -3.064931000000000072e+00 1.665050099999999844e+01 1.545422199999999968e+01 3.057825999999999933e+00 -1.664967800000000153e+01 -1.545981600000000000e+01 3.065946999999999978e+00 -1.664941999999999922e+01 -1.545977399999999946e+01 3.065230999999999817e+00 -1.664964799999999912e+01 -1.545956600000000059e+01 -2.360999999999999818e-03 -5.272999999999999909e-03 1.477000000000000014e-03 4.923000000000000292e-03 -5.203000000000000159e-03 6.470000000000000057e-04 -1.410000000000000012e-03 -4.997999999999999839e-03 2.489999999999999809e-04 -1.696999999999999941e-03 -2.919999999999999853e-03 4.892999999999999780e-03 -3.064915000000000056e+00 1.665141200000000055e+01 1.545563899999999968e+01 7.280000000000000230e-04 -2.471999999999999805e-03 4.984999999999999848e-03 -3.065004000000000062e+00 1.665113399999999899e+01 1.545573599999999992e+01 -1.564000000000000069e-03 -2.900999999999999933e-03 4.416999999999999919e-03 -3.057360000000000078e+00 1.665119400000000027e+01 1.545492899999999992e+01 3.068583999999999978e+00 -1.665446499999999830e+01 -1.546143799999999935e+01 -4.531999999999999570e-03 -5.975000000000000276e-03 4.319999999999999838e-04 3.061608000000000107e+00 -1.665583099999999916e+01 -1.546121100000000048e+01 3.999999999999999819e-06 -5.586999999999999952e-03 1.330000000000000073e-04 3.060407000000000100e+00 -1.665409299999999959e+01 -1.546184900000000084e+01 6.211000000000000375e-03 -4.957999999999999734e-03 3.100000000000000135e-05 3.064947000000000088e+00 -1.664951399999999992e+01 -1.545788199999999968e+01 3.066043000000000074e+00 -1.665020700000000176e+01 -1.545788100000000043e+01 3.058460000000000178e+00 -1.665011200000000002e+01 -1.545788899999999977e+01 -3.061973000000000056e+00 1.664904200000000145e+01 1.545957399999999993e+01 -3.061072999999999933e+00 1.664971900000000105e+01 1.545904400000000045e+01 -3.064802999999999944e+00 1.664988900000000172e+01 1.545897399999999955e+01 -3.062120000000000175e+00 1.665128299999999939e+01 1.545517000000000074e+01 -3.065164000000000222e+00 1.665102699999999913e+01 1.545551400000000086e+01 -3.060170999999999975e+00 1.665157800000000066e+01 1.545497699999999952e+01 3.059044000000000096e+00 -1.665422500000000028e+01 -1.546026499999999970e+01 -3.542000000000000010e-03 -5.856000000000000094e-03 2.010000000000000068e-03 3.062504000000000115e+00 -1.665374500000000069e+01 -1.546068400000000054e+01 1.683000000000000034e-03 -5.157000000000000126e-03 7.500000000000000156e-04 3.069144000000000094e+00 -1.665408899999999903e+01 -1.546010199999999912e+01 3.226000000000000135e-03 -6.356999999999999804e-03 1.180000000000000059e-03 3.062870999999999899e+00 -1.665129500000000107e+01 -1.545641799999999932e+01 3.062359999999999971e+00 -1.665109999999999957e+01 -1.545595600000000047e+01 3.064115999999999840e+00 -1.665025699999999986e+01 -1.545729200000000070e+01 -3.064473000000000003e+00 1.664925799999999967e+01 1.545791900000000041e+01 -3.066826999999999970e+00 1.664958299999999980e+01 1.545727499999999921e+01 -3.055978000000000083e+00 1.664956400000000158e+01 1.545799599999999963e+01 -3.062959999999999905e+00 1.665206299999999828e+01 1.545649300000000004e+01 -3.058803999999999856e+00 1.665185599999999866e+01 1.545589900000000050e+01 -3.065605999999999831e+00 1.665292900000000031e+01 1.545685899999999968e+01 3.057350000000000012e+00 -1.665372599999999892e+01 -1.546199200000000040e+01 3.067900999999999989e+00 -1.665340300000000084e+01 -1.546237700000000004e+01 3.065811000000000064e+00 -1.665335999999999927e+01 -1.546246900000000046e+01 3.063706999999999958e+00 -1.665038300000000149e+01 -1.545850000000000080e+01 3.066746999999999890e+00 -1.665017500000000084e+01 -1.545884299999999989e+01 3.058701999999999810e+00 -1.664986400000000089e+01 -1.545827500000000043e+01 -3.066006999999999927e+00 1.665094399999999908e+01 1.545758000000000010e+01 2.699999999999999899e-05 -6.251999999999999745e-03 7.460000000000000268e-04 -3.059982999999999898e+00 1.665118800000000121e+01 1.545740200000000009e+01 1.221000000000000080e-03 -6.108999999999999847e-03 7.230000000000000098e-04 -3.061625999999999959e+00 1.665070300000000003e+01 1.545791000000000004e+01 3.130000000000000187e-04 -5.503000000000000079e-03 1.126000000000000048e-03 -3.061662999999999801e+00 1.665310099999999949e+01 1.545306800000000003e+01 -3.064468000000000192e+00 1.665320099999999925e+01 1.545389199999999974e+01 -3.061634000000000189e+00 1.665268100000000118e+01 1.545311099999999982e+01 6.595000000000000168e-03 -3.073000000000000211e-03 4.406000000000000194e-03 3.059442999999999913e+00 -1.665271999999999863e+01 -1.546215300000000070e+01 1.108999999999999960e-03 -6.148999999999999952e-03 -9.340000000000000429e-04 -4.741000000000000422e-03 -3.395000000000000014e-03 4.127999999999999725e-03 3.060402999999999984e+00 -1.665239199999999897e+01 -1.546293299999999959e+01 4.210000000000000200e-03 -6.381000000000000387e-03 -3.170000000000000075e-04 -4.616000000000000311e-03 -3.079000000000000140e-03 5.531999999999999591e-03 3.071066000000000074e+00 -1.665312199999999976e+01 -1.546218099999999929e+01 -4.533999999999999836e-03 -6.006000000000000054e-03 1.160000000000000007e-04 -3.062447999999999837e+00 1.665274199999999993e+01 1.545714300000000030e+01 -3.067506999999999984e+00 1.665306199999999848e+01 1.545714700000000086e+01 -3.057903000000000038e+00 1.665201000000000064e+01 1.545732699999999937e+01 2.322999999999999978e-03 -2.514000000000000175e-03 5.098000000000000101e-03 3.061523000000000216e+00 -1.665378799999999870e+01 -1.546101799999999926e+01 -1.734999999999999997e-03 -4.581000000000000003e-03 1.141000000000000087e-03 4.130000000000000099e-04 -2.985999999999999939e-03 5.695999999999999674e-03 3.064486000000000043e+00 -1.665409199999999856e+01 -1.545951699999999995e+01 1.928000000000000026e-03 -5.768999999999999823e-03 1.613999999999999983e-03 -5.396999999999999888e-03 -2.550000000000000183e-03 5.497000000000000150e-03 3.064808999999999894e+00 -1.665421200000000113e+01 -1.546058999999999983e+01 8.289999999999999843e-04 -5.578999999999999758e-03 2.057999999999999934e-03 -3.063334999999999919e+00 1.665172499999999900e+01 1.545684600000000053e+01 -3.065627999999999798e+00 1.665128500000000145e+01 1.545775399999999955e+01 -3.058495000000000186e+00 1.665101200000000148e+01 1.545837599999999945e+01 3.064486000000000043e+00 -1.665383100000000027e+01 -1.546032600000000023e+01 3.064817000000000125e+00 -1.665455199999999891e+01 -1.546030499999999996e+01 3.060766999999999793e+00 -1.665417899999999918e+01 -1.546112600000000015e+01 -1.601999999999999908e-03 -3.040000000000000167e-03 3.884999999999999998e-03 -3.062946999999999864e+00 1.665066300000000155e+01 1.545588599999999957e+01 -2.076000000000000154e-03 -6.936999999999999590e-03 2.070999999999999924e-03 -5.240000000000000517e-04 -3.079000000000000140e-03 3.286999999999999991e-03 -3.059016000000000179e+00 1.665099299999999971e+01 1.545564700000000080e+01 -1.018000000000000025e-03 -7.107999999999999735e-03 1.913999999999999903e-03 -6.260000000000000373e-04 -2.294000000000000032e-03 3.664999999999999855e-03 -3.065189000000000163e+00 1.665169300000000163e+01 1.545492100000000057e+01 4.481999999999999873e-03 -6.333000000000000088e-03 7.849999999999999990e-04