-3.147725819958152351e-06 -1.587689845005485923e-03 -1.191899777290351264e-01 5.599862223184762060e-03 1.250704699429107565e-02 3.624050712109704291e-03 -5.596137681386154257e-03 1.251305573235983980e-02 3.621594716395880667e-03 2.415933534249162587e-03 1.030021529895391776e-03 1.652083776944230026e-03 -2.431066246372932862e-03 1.045025254187270181e-03 1.646886190317063724e-03 6.975555849108668403e-06 2.467001523316202441e-02 1.074650518621903797e-03 2.435918357862291907e-03 2.605027227728221907e-03 2.055062261009163362e-03 8.778134940564472896e-06 3.459078183145755919e-03 5.514951320477091620e-03 -2.450081229309712064e-03 2.607030911669284100e-03 2.044863270584376582e-03 -3.136020090362989566e-06 8.804738453222094453e-05 3.341998627087543455e-03 4.187117800815153305e-05 -2.795518851628196359e-05 3.163002104312804316e-03 -4.912886812222746650e-05 -3.495510308513072957e-05 3.163998497958767434e-03 1.487925875407648377e-05 -5.695798875373950482e-05 2.964001416189954857e-03 -1.612053134742415722e-05 -4.895803537064197019e-05 2.959000040426110201e-03 -6.111039432165436881e-06 6.003868171767911676e-05 2.727998902473140631e-03 -7.012485001243556849e-05 5.204353810286771432e-05 3.066996409445642974e-03 6.868741080349075753e-06 3.204570372805196256e-05 3.223999828360501682e-03 5.587530884855261115e-05 4.704338273467467224e-05 3.063001611165420014e-03 3.862778626560214743e-06 6.204779020993448518e-05 3.370999280728393180e-03 6.877325341856606658e-06 2.204271221423843844e-05 3.012999970334281821e-03 -1.712279601718433728e-05 2.304277353943145709e-05 3.015998978853302436e-03 3.875622071263078183e-06 -7.295671831538147088e-05 3.053001195022073642e-03 -7.124667666934522949e-06 -7.895661045725133910e-05 3.060000832152784834e-03 -9.124541534925618703e-06 3.004337691995714979e-05 3.058999205335794554e-03 -5.512277485416429624e-05 -1.957210881989691990e-06 3.014997785905976311e-03 -6.117333973713120597e-06 -2.195914907136377119e-05 2.881000064907516308e-03 5.387693452453659647e-05 -8.957196983297465416e-06 3.022002323716584983e-03 4.621016731608311402e-04 -2.680358345612053714e-04 -2.501977385000319666e-03 -2.873498244880035976e-06 2.369560228038794167e-04 -3.102003479408880961e-03 -4.488983699387194526e-04 -2.720351070735086492e-04 -2.501014424985562989e-03 4.099973067998797905e-06 5.759653462780802173e-04 -2.444008001236414301e-03 -2.787888917140286815e-05 -4.304215701297832186e-05 -2.975000527774447189e-03 3.312111234515070302e-05 -4.104220477594545892e-05 -2.974998072158055971e-03 -1.808838961406790879e-04 -4.104029334593841489e-05 -2.852006786534535231e-03 1.891159735541880120e-04 -5.104054052012190574e-05 -2.848991578044776478e-03 1.184522221522014234e-07 -6.041243206106738956e-06 -2.908999912229217732e-03 5.754854676712239415e-03 -1.488954316597183381e-03 3.540255455897200598e-03 1.226591397468772239e-06 2.341192749161131667e-02 -5.114331884323476164e-03 -5.751145265971681353e-03 -1.479945321622115747e-03 3.538786794185311193e-03 -1.121964971240631750e-05 3.376077404857506358e-03 5.458951682866495202e-03 -5.090039692561038227e-03 1.419502167790802696e-02 1.247591476355260727e-03 5.108960140014416791e-03 1.420001374884091207e-02 1.252006717423263544e-03 2.096153546478558925e-03 1.857945404587067794e-03 -3.734940987908531417e-03 -2.097846036565948619e-03 1.865948546694185884e-03 -3.745111884570926676e-03 6.923737203637430247e-06 2.244027158948721807e-03 1.915968468363626843e-03 5.712115145395682233e-05 -9.504225191800010758e-05 -2.976996329256542586e-03 5.120442054151349975e-06 -1.304194183235463378e-05 -2.957999609335067431e-03 -5.487864014750939469e-05 -8.904223511201231637e-05 -2.982000975053800129e-03 4.121641815067405419e-06 1.149576761372628545e-04 -2.985001464784543031e-03 -5.087776383172128321e-05 -1.004252180786832058e-05 -3.002001932195117774e-03 5.712203247450345296e-05 -1.004253548247634481e-05 -2.996997534347845427e-03 -6.878033242625224806e-06 9.957542982852133162e-06 -2.995000424039445316e-03 7.122418592870734076e-06 1.495737606465289779e-05 -3.005999924826121585e-03 6.123643353194424707e-06 1.895695151338491180e-05 -3.036000022230138373e-03 1.259991126063610687e-04 -9.299981509223290729e-05 2.000644934065117886e-05 -1.410018793602456724e-04 -1.119992657632551354e-04 4.399584622859854842e-05 -4.994948335915080105e-06 -1.530017966496061946e-04 -1.269980342883861150e-04 2.240037289428413263e-04 8.199854859901184998e-05 -8.999204102229032979e-05 -9.993070612421902238e-07 -2.070002969298384815e-04 -2.099710590429183877e-05 -2.109949535251664783e-04 9.999843551107345319e-05 -1.220100097625213229e-04 8.000584289372997918e-06 2.259998519352937163e-04 -1.000287839843867092e-05 4.000473783847599129e-06 3.299984090893960870e-05 -1.100030497256436808e-05 1.100291546129550884e-05 3.099898476044634125e-05 -7.099999151530371488e-05 4.676955363302363021e-03 3.998012968077895198e-03 1.173133767631911626e-03 -4.665042213882643687e-03 4.014019446336444981e-03 1.113753126651411025e-03 -2.332860946481608931e-05 -1.912886091568083338e-03 8.033026178014473356e-03 2.258780261062631311e-03 8.740749755298757046e-04 5.413079592005486627e-03 8.828778644242136968e-07 -1.556560016722487172e-01 -1.167931052182762081e-04 -2.267219010044118320e-03 8.640782641711688842e-04 5.394895431227699628e-03 -1.989621228641625240e-06 2.539997080684086583e-03 -2.060360927694116363e-04 -2.426042733790823892e-03 4.756018075933724464e-03 1.140833780711469382e-03 2.425955338902564904e-03 4.744014943193967764e-03 1.188031528370557576e-03 -5.799352844764561277e-05 4.799780531727070189e-05 -1.580030421951346322e-04 3.200830156478842926e-05 4.499709684712775964e-05 -2.029993347434118215e-04 2.400288494110994539e-05 9.599900293053430125e-05 -6.900038370072376491e-05 -2.399603519569835767e-05 -3.300137062871107596e-05 -9.800050934313174174e-05 -5.995886481552915194e-06 -1.550014697771150650e-04 -1.039980466750910410e-04 2.500516604093203308e-05 -7.001820154209346393e-06 -1.269988826163188098e-04 -1.299374854421190447e-05 2.699784097353754190e-05 -1.530009120284495940e-04 1.100145886397430727e-05 -6.100053318523665616e-05 -3.699868719267107418e-05 -3.998136265905038230e-06 -6.400066321794551174e-05 -4.699925546285143620e-05 -2.998085157448009824e-02 1.784867301315924693e-02 4.581252614229339160e-02 3.659980468338281312e-05 1.344849114443299673e-02 3.464381085262423221e-02 2.993314901874135833e-02 1.783762587388394022e-02 4.579896604733746379e-02 -8.813334293334631968e-06 -3.434337801117417349e-02 4.387048659528107464e-02 -8.099509086282879675e-03 -5.728165636144861086e-04 1.249067831407365929e-02 8.107489027091413156e-03 -6.248286156271518109e-04 1.253633901410957513e-02 -7.128175635337693746e-04 -1.781715276774625692e-03 2.004299625289656175e-02 7.231821760872571368e-04 -1.748716301915864907e-03 2.005005426016606349e-02 -1.867246871340371523e-05 -1.617658963104955984e-04 1.651100154847376378e-02 -1.118701517345749622e-04 1.193030805652841187e-04 2.137099377296522787e-02 -3.867616236984608949e-06 -2.269792554068410180e-05 2.130600018411998170e-02 1.281307893471301748e-04 1.253025665563084739e-04 2.134800346092429260e-02 6.122039902766327762e-06 2.830568196203057566e-05 2.156099986802550994e-02 -1.738536662113859886e-04 -3.047027262756951400e-04 2.095799726002809185e-02 1.891480132284375907e-04 -2.917035917942202182e-04 2.091701185742423502e-02 -6.284467708433695836e-05 -1.097058897895205275e-04 2.074099901558041151e-02 5.915393438804842171e-05 -1.147055032695051379e-04 2.077500405438145736e-02 1.814542300789927717e-05 -6.370249383477784712e-05 2.098500166156540975e-02 9.514013785414234068e-05 -5.270071101319356665e-05 2.111500464099469801e-02 -2.786912834819251750e-05 2.230263200291093012e-05 2.134399856878487281e-02 -7.986145716563446378e-05 -6.170002105393982339e-05 2.115399764240937300e-02 6.138643819035641246e-06 1.529989742283293240e-05 2.115300005271571193e-02 4.913265074274706523e-05 -4.569806628172924580e-05 2.129900266842015694e-02 -4.986802184008534082e-05 -2.069774774510891905e-05 2.131599828259601176e-02 1.012975656108418095e-05 1.583030275692075153e-04 2.137399818797349957e-02 -7.087205232731162751e-05 1.363037148171100167e-04 2.141799520145445251e-02 2.913312768079421477e-05 -8.698206581285144375e-06 2.128800132943611464e-02 -2.228639696057280070e-05 1.177515946666614854e-04 -1.752200259326724269e-02 6.558723335788294332e-04 -5.043043713218976157e-04 -2.143196616232657947e-02 -6.461284907281206191e-04 -5.183030683035840490e-04 -2.141201898240463475e-02 -9.714227151641286796e-05 6.037016057247467267e-04 -2.105201253444263787e-02 9.485797108223539256e-05 6.017013703229141027e-04 -2.105800468767812100e-02 1.184517907248445203e-05 7.470574541451313860e-05 -2.075400059611001366e-02 2.928677692529342872e-04 -4.573024850081551453e-04 -2.131898161045546122e-02 3.185818849327198805e-05 -1.082988496548637853e-04 -2.107699718686201554e-02 -2.961329812558594478e-04 -4.803017686207841880e-04 -2.130100526896494192e-02 -1.827893200421353454e-05 -4.372511589016732782e-04 -1.771599456154477129e-02 8.472190065233330125e-03 4.745791487223458374e-04 -2.921566176094868988e-02 -8.451810485336648179e-03 4.815925986377182061e-04 -2.920235101989034771e-02 -1.633175713905631390e-03 3.807143916881348218e-04 -2.023507192078818212e-02 1.601824862122327910e-03 3.917116602053263797e-04 -2.024894034477720331e-02 1.818600443945179863e-05 1.360493893494769610e-02 -4.306192151493800496e-03 -1.757115041933695948e-03 -2.532307429798309490e-03 -2.178103566891157958e-02 -1.302896535246246029e-05 6.661927253009154924e-06 -2.384600064716905707e-02 1.771884449275635620e-03 -2.502310008683428320e-03 -2.176789239037297749e-02 4.985574136003730029e-05 -9.297984735462408798e-06 -2.101499785754291222e-02 -1.214274486529808468e-05 -2.984607690364836917e-07 -2.105200050980116089e-02 -4.314227810458286840e-05 2.370140754567587928e-05 -2.106300211240363929e-02 -2.013970414139262872e-05 -6.929953201055884541e-05 -2.112799985723164131e-02 -8.139954769954711722e-06 -1.292994705114872036e-04 -2.112299851792026617e-02 8.597641445306775381e-07 -2.029934996928280152e-05 -2.111399969681719210e-02 -8.141450346099725403e-06 1.447011249282956907e-04 -2.108100240266649883e-02 -3.413885361863775429e-05 8.070022373594907552e-05 -2.114600255397134504e-02 3.586060679091006536e-05 1.197003674114215950e-04 -2.113200025645755459e-02
2.847355572732427092e-06 -1.576688134191333093e-03 -1.190689776407778816e-01 5.591862477702891528e-03 1.252004691548696050e-02 3.618050202037547975e-03 -5.597137556872085196e-03 1.251605569060914788e-02 3.618594633144527842e-03 2.425933578096002401e-03 1.034021507887231388e-03 1.651084127442616718e-03 -2.428066380291543907e-03 1.030025294373180080e-03 1.649886525143280354e-03 -6.024365049149569110e-06 2.466701521498568597e-02 1.072650031785988851e-03 2.438918679708656102e-03 2.600027111957374341e-03 2.047062454067970824e-03 -6.222152443595065926e-06 3.456078294135567913e-03 5.521950752191108307e-03 -2.441081356964711156e-03 2.600030947156410296e-03 2.047863736313592156e-03 -5.136558078932696620e-06 7.704757041066191041e-05 3.354998701589154923e-03 5.787071909561219822e-05 -4.195504508706009655e-05 3.174002954324885162e-03 -6.112923695055523640e-05 -3.795496608871615598e-05 3.172998051833477839e-03 1.878858608619954965e-06 -4.795783679774314660e-05 2.974000759209722948e-03 -1.212130974814289921e-05 -5.495776912390983363e-05 2.978000288358433230e-03 1.888468776825277570e-06 5.603884558765747189e-05 2.739999284939848099e-03 -6.312513663126844950e-05 5.004363186666379085e-05 3.073996722840620539e-03 -1.013181097512107894e-05 5.504591552580303593e-05 3.237998810004458650e-03 6.587466592612678214e-05 5.804360174832999748e-05 3.079001862403659383e-03 8.609884792348886128e-07 6.404841638171729367e-05 3.414999130169410566e-03 5.875575913712492238e-06 2.404332264223359180e-05 3.055999901217930793e-03 -1.412454231435210398e-05 2.904338083503873956e-05 3.058999015909302267e-03 3.873788066315591546e-06 -7.495608031438850017e-05 3.098001223335768682e-03 -1.212625185768053127e-05 -7.395605360875546379e-05 3.099000557623458017e-03 -1.263363936446684878e-07 2.604399369639097094e-05 3.102999628493606065e-03 -5.512444440860476757e-05 -1.956629592379800065e-06 3.055997785867862939e-03 -3.118928357549661874e-06 -2.995859848552658608e-05 2.920000300455923015e-03 4.787538870473954320e-05 -6.956653529298351384e-06 3.060002051000626500e-03 4.641029824946405857e-04 -2.600362898174557349e-04 -2.533977416950977841e-03 8.127197918144191425e-06 2.419557731678964835e-04 -3.119003102352532666e-03 -4.658972641933513338e-04 -2.640354765638553564e-04 -2.528015230637040058e-03 1.101320776074808812e-06 5.809648807593176950e-04 -2.477008194257107956e-03 -2.887779911077500660e-05 -5.504253902924723482e-05 -3.002000398337037294e-03 3.612223763828656213e-05 -6.004260410128867858e-05 -3.002997680591967637e-03 -1.758827191583331798e-04 -4.604070841648066870e-05 -2.881006512014503904e-03 1.861171630803448761e-04 -4.004094932830788885e-05 -2.877991856135769366e-03 -2.880037186411741401e-06 -1.041765436050767242e-06 -2.946000105246192671e-03 5.755854847430505461e-03 -1.478954374092369050e-03 3.536255354844135279e-03 4.226703371045273238e-06 2.339892744673025340e-02 -5.117331577847209455e-03 -5.752145183745598772e-03 -1.478945349194811260e-03 3.536786739288555817e-03 5.780318171962229756e-06 3.387077405723257564e-03 5.459952219164635780e-03 -5.114039432544621559e-03 1.421502161163114807e-02 1.241590215505142258e-03 5.116960595772757775e-03 1.421001358662018522e-02 1.241006901422663086e-03 2.102154066441621044e-03 1.845945215578961027e-03 -3.747940573438178404e-03 -2.095846095310638021e-03 1.842948559308307420e-03 -3.744111477041594215e-03 9.241874885744176290e-07 2.247027007690647130e-03 1.904968181515455383e-03 7.012140203680257324e-05 -8.704234716452881164e-05 -2.982995913302008244e-03 1.120684815362043689e-06 -1.504202376694057012e-05 -2.963999743857367343e-03 -6.287848039180809654e-05 -9.304228555882128034e-05 -2.986001244105836953e-03 3.121837584361991261e-06 1.049576060322903012e-04 -2.990001363723111469e-03 -3.487793613123357116e-05 -2.204247762341562394e-05 -2.998001110532056736e-03 4.012226976148193747e-05 -1.904260723740656936e-05 -3.002998098996865605e-03 5.122387276571368063e-06 2.695739180723083432e-05 -3.005000176401914636e-03 3.122225962017097244e-06 2.895745008420297782e-05 -3.001000286202862386e-03 -8.760371428675806004e-07 1.095684357280158788e-05 -3.044000193846551489e-03 1.339946716774441783e-04 -9.599827597620514341e-05 1.290068175394242650e-04 -1.350055364050882067e-04 -1.019979944606575048e-04 1.339959486924067306e-04 -4.998799577099445005e-06 -1.310004497612645401e-04 -3.199834628749423165e-05 2.039996326096314369e-04 1.029999962141495926e-04 1.100684673376508783e-05 2.995568378186671260e-06 -1.989985136604138533e-04 1.050029434398754935e-04 -2.039999559257057895e-04 1.080001738981235310e-04 9.901617469881522372e-07 -3.020294396955643932e-09 1.990011058479768688e-04 7.799717855256134587e-05 -1.100149412478122601e-05 1.600053318977316867e-05 3.699932519202709730e-05 1.999907045625311892e-05 9.000310428462932478e-06 2.300068679577036410e-05 4.640963584240463853e-03 3.992010132351698007e-03 9.711323869356310902e-04 -4.641036198188256898e-03 4.000017329232235033e-03 9.657543025781068673e-04 -6.320485658842957182e-06 -1.886888926262916388e-03 7.834026501832081976e-03 2.248789980814512243e-03 8.580715948683584208e-04 5.174079411863364425e-03 -7.108563275694409346e-06 -1.547630044023892981e-01 -3.098060915484488701e-04 -2.248209775832076245e-03 8.520750309359043269e-04 5.167896375268050957e-03 -1.983696358910627207e-06 2.513995010728584459e-03 -3.520357240118401182e-04 -2.404037769809437911e-03 4.699016314844725248e-03 1.017835484817052093e-03 2.404962025732070626e-03 4.703012620304785306e-03 1.023031254674370118e-03 -5.599232327914730275e-05 2.699737841953453774e-05 -1.880026629925116329e-04 5.200804155169061688e-05 2.499716625599305065e-05 -1.969982367766977087e-04 1.004654737089009310e-06 6.799839711927261460e-05 -1.130009232620200272e-04 -2.799671647663212715e-05 -1.900112647561663794e-05 -8.100087073102791950e-05 -2.996773723213007947e-06 -1.440011602157144940e-04 -8.199808048838700227e-05 2.700365231603142719e-05 -1.600129714086591311e-05 -8.999867360914052758e-05 -2.995529299437587420e-06 4.099845696516060613e-05 -1.090007033495292871e-04 2.100111117388389176e-05 -3.700041341745941682e-05 -2.799862025884950915e-05 -2.299840405740980015e-05 -4.200054909866885496e-05 -4.000034107632612806e-05 -2.972383833339306905e-02 1.780566818997228115e-02 4.548653721749900541e-02 6.134759454562196938e-07 1.343448640888302709e-02 3.430780958547462178e-02 2.972316149592263770e-02 1.780662168573308307e-02 4.549195793575477875e-02 -2.800951170136182629e-06 -3.418238228340478302e-02 4.356948455726607217e-02 -8.032504200671182135e-03 -6.778183457556777314e-04 1.236868253114925889e-02 8.031495663059237330e-03 -6.788308812724397389e-04 1.237233668507657126e-02 -6.948123606590776366e-04 -1.741717091452600315e-03 1.991599641887940170e-02 6.911877243344948440e-04 -1.735718205041467989e-03 1.991405277291433129e-02 1.331635455541075603e-06 -1.727673439266414737e-04 1.641000251894007486e-02 -1.328622675706464420e-04 4.730033234536598771e-05 2.117599393880759476e-02 -4.860846415239303357e-06 -6.170029244558194710e-05 2.113900069648715074e-02 1.421377298505481057e-04 4.430011702172554749e-05 2.117600517957494294e-02 1.012745106972932107e-05 2.230379318386751099e-05 2.142800011609912944e-02 -1.548476512714439229e-04 -2.677048252922705688e-04 2.081099750928366507e-02 1.551525935800556399e-04 -2.667051530879518224e-04 2.080501011857532542e-02 -1.038386918454420376e-04 -5.870792764994253737e-05 2.059499662309529841e-02 1.071615444688597270e-04 -6.870817792789550083e-05 2.058900535697809689e-02 1.153354207900767925e-06 -2.370523102017612434e-05 2.079100040238074723e-02 6.614645666055809570e-05 -4.370288586549364774e-05 2.096000333263423401e-02 1.138314138595116252e-06 1.030001476068067549e-05 2.116099991999283517e-02 -7.285412271879730000e-05 -5.570257853868314983e-05 2.097399784255607816e-02 3.146607892530676213e-06 4.529713509870123190e-05 2.095799950540152765e-02 3.013944881304842630e-05 3.299595076227663462e-06 2.113300120016789116e-02 -3.186059812495668466e-05 -4.700342199408814520e-06 2.113399878889630004e-02 4.913700481327828274e-05 1.063004592122296387e-04 2.119500051349678879e-02 -5.986311725883714050e-05 1.063005870921967253e-04 2.119799607492123261e-02 -2.859439184706591012e-06 -3.270077605954015295e-05 2.110500036680531752e-02 -4.299224015124273113e-06 1.697560607508232823e-04 -1.720600259782937430e-02 6.728550005912075109e-04 -4.862983448938221860e-04 -2.100596572566786058e-02 -6.751444720541348483e-04 -4.902974737259405266e-04 -2.101902056065202765e-02 -7.715547059516029537e-05 5.447061694986737217e-04 -2.072901088383783189e-02 7.384476341818502492e-05 5.317059662007925973e-04 -2.073500455067281076e-02 4.831258769631619399e-06 -2.128942864441235933e-05 -2.041399952040674412e-02 3.348550525873950014e-04 -4.202980802477750523e-04 -2.100598042504792790e-02 3.843821920687359873e-06 -4.629380879766315323e-05 -2.072299920639625662e-02 -3.241451191522722172e-04 -4.322975075409171155e-04 -2.100200708995936943e-02 -3.286991633664158185e-06 -4.852483776160900625e-04 -1.751899327038248730e-02 8.397179783270942305e-03 4.485827802541101782e-04 -2.896366444662493503e-02 -8.395820373520036101e-03 4.385959858207462815e-04 -2.896034813010381695e-02 -1.629183511937320203e-03 4.067171106902388918e-04 -2.004307212670511026e-02 1.630816652943636218e-03 4.127145014109842450e-04 -2.004693946179333247e-02 -5.818940784474180079e-06 1.358194066925516065e-02 -4.185192802818149538e-03 -1.782125933158026617e-03 -2.504303610577071366e-03 -2.151303708415936919e-02 -3.876341421766441296e-08 2.666533392072543090e-05 -2.360500040157729670e-02 1.783873905702413947e-03 -2.498306346030786107e-03 -2.150889195867458636e-02 5.850919123774166282e-06 2.070373687099232938e-05 -2.089600007470389029e-02 5.853242562375276409e-06 2.370292873635419418e-05 -2.095300011718419231e-02 -1.614679892379142242e-05 2.270296014016579567e-05 -2.095200099886608200e-02 8.524735220403473298e-07 -7.429682631626433617e-05 -2.093599893138342952e-02 -1.214716624820524444e-05 -8.229694373666608469e-05 -2.094499934732401911e-02 -1.452640823171827129e-07 6.702408857616484797e-06 -2.099000012045292712e-02 -1.514592965767649686e-05 9.270267579420557002e-05 -2.097200195057008498e-02 3.855735154583129276e-06 3.470206545572042091e-05 -2.101400035452458820e-02 9.854555837374688677e-06 8.870248608616055892e-05 -2.098400087582659446e-02