-4.702343097599999737e+02
-4.702343139500000007e+02
-4.702343223299999977e+02
-4.702343351299999767e+02
-4.702343526500000053e+02
-4.702343752699999868e+02
