2.164012899202785462e-03 -1.706579998377300844e-01 -1.395999841478705707e-03 -1.500318029031388421e-05 4.002699997117156738e-02 -2.772500003989922940e-02 -2.156000112405423007e-03 1.363999835268041652e-03 -1.674999989461659240e-03 3.299998459136473800e-05 1.960000023899169798e-04 -1.060000003779350167e-04 -2.464000202954613229e-03 2.682999813640045243e-03 -6.999989079061680711e-06 -1.471400111601033761e-02 1.580499890153120451e-02 1.437100006543191172e-02 1.622099909655302583e-02 1.300400124128408413e-02 1.450199989747303318e-02 9.650000101586732023e-04 -1.259999269029290418e-04 1.139999947991978963e-04 8.499995820620859666e-05 5.610000065434411114e-04 1.149999989704425827e-04 -1.331000038856235438e-03 5.749999001741831067e-04 8.390000067725737233e-04 -8.500035659518162545e-05 4.936999996609997728e-03 3.041999995537734373e-03 1.332999961803997199e-03 5.670001016631783224e-04 8.489999920756696825e-04 -9.890003727019524953e-04 4.849999924134861320e-03 -1.067999999385413866e-03 -4.220001677418137235e-04 2.147999967127100888e-03 -9.579999998162076497e-04 2.200000320980409485e-04 -4.119999831915330951e-04 1.699999991971689033e-04 1.195999826656517001e-03 2.296000090508719740e-03 5.499999110483245400e-05 -2.744003235848227300e-03 4.257599978960867337e-02 -2.865000027381681483e-03 2.112008225392012634e-03 -1.073899998215466361e-01 1.874300009561141039e-02 2.737000032392398509e-03 1.110000228053340410e-03 2.107699998378340100e-02 -2.142999943059390160e-03 6.719998574254295405e-04 1.952300001115780254e-02 -1.664000013373451332e-03 1.668999894573284593e-03 2.044500000751791474e-02 9.289995559454253433e-04 7.153000087800766293e-03 1.755999998772709084e-02 -7.610002479374026628e-04 4.537999959685976546e-03 1.725999999966771128e-02 1.491000182500256148e-03 -9.429998671159048242e-04 2.014199999271183705e-02 -1.353000066776405622e-03 2.339999917613833167e-03 1.996400000513099196e-02 -1.909999102899912176e-04 3.090000060176118944e-04 2.048600000074564040e-02 1.337999937631973672e-03 2.312000121549390164e-03 2.037899999030503076e-02 1.989997617445033004e-04 4.662000035740145563e-03 2.071299999424478649e-02 -1.097300113696388427e-02 1.749999920387017294e-02 3.379900004308904193e-02 -5.713000224832344778e-03 4.600999590208269124e-03 2.230900002693910270e-02 -3.849998415235495928e-04 -6.390000091850588830e-04 1.995500000276342542e-02 1.707599924518279563e-02 1.227500132286693350e-02 3.143999989348174318e-02 2.333899890545033592e-02 1.330900174921244815e-02 -1.594000014212195240e-02 -6.165000167112368555e-03 1.849995060306160730e-04 -2.773999996615488309e-02 -6.410001634607119482e-04 6.859999313297053753e-04 -2.021399999714700024e-02 -1.653200109131688911e-02 1.381699874129596779e-02 -8.393999922547225323e-03 2.014999477313187196e-03 5.373000131344621982e-03 -2.107400001648947196e-02 1.373998965340915467e-03 1.329900009869480586e-02 -5.227000020868339918e-03 -2.011000193129189925e-03 9.979998266174867644e-04 -2.131399998989644967e-02 -1.371000014067883183e-03 -1.275000123684597161e-03 -2.001799999115871226e-02 -1.722000195611147946e-03 1.092999849325674124e-03 -2.046199999158658175e-02 4.999999850053525596e-04 -1.277999982389150429e-03 -2.022700000148336050e-02 -3.360002075130312082e-04 1.289999954691600738e-03 -1.991899999943387914e-02 1.565999611735755361e-03 3.663000098308604770e-03 -2.015100001230297685e-02 -2.129999953612364896e-03 -1.927000179071228225e-03 -1.799899998631787276e-02 9.779999213538387217e-04 -4.249999460820649182e-04 -2.007100000497389486e-02 2.128999808747137311e-03 1.048000140750602249e-03 -2.028900001279859699e-02 -9.780032269278988565e-04 3.953099988311174762e-02 -4.297000003408817104e-02
2.164012892314911944e-03 -1.705669998377310759e-01 -1.396999841569603398e-03 -1.500317851217897189e-05 4.000399997117855960e-02 -2.771800003987625466e-02 -2.154000112161972950e-03 1.360999835422298937e-03 -1.671999989469702321e-03 3.299998458584488178e-05 1.960000023889181043e-04 -1.070000003779350139e-04 -2.461000202733242166e-03 2.679999813865937500e-03 -7.999989092624617645e-06 -1.470500111544393446e-02 1.579699890220487984e-02 1.436400006539022278e-02 1.621199909697369074e-02 1.299800124059741734e-02 1.449599989752870660e-02 9.650000101697128740e-04 -1.259999269009312909e-04 1.159999947991978907e-04 8.499995828183885393e-05 5.600000065434410871e-04 1.149999989714414582e-04 -1.329000038791645130e-03 5.739999003234458460e-04 8.370000067625327700e-04 -8.500035630922015827e-05 4.932999996607000462e-03 3.038999995541729910e-03 1.329999961890667272e-03 5.660001014382852772e-04 8.509999920932280601e-04 -9.870003724695417847e-04 4.846999924287119337e-03 -1.066999999393456995e-03 -4.220001677473335594e-04 2.147999967126102121e-03 -9.589999998162076740e-04 2.200000320224106912e-04 -4.109999831915331250e-04 1.699999991961700279e-04 1.192999826802257661e-03 2.294000090280830153e-03 5.399999112338976960e-05 -2.742003233064819849e-03 4.253999978977091728e-02 -2.854000027356761587e-03 2.109008221938972298e-03 -1.073449998217825135e-01 1.873400009558302132e-02 2.734000032309600627e-03 1.110000227811466398e-03 2.106199998379996302e-02 -2.139999943055517859e-03 6.709998576393350154e-04 1.951000001114224294e-02 -1.660000013316028636e-03 1.666999894858824799e-03 2.042800000749783393e-02 9.269995562462985533e-04 7.148000087635521943e-03 1.754599998774312303e-02 -7.610002478744598477e-04 4.535999959669994273e-03 1.724399999966970409e-02 1.487000182179528014e-03 -9.399998674354066632e-04 2.012499999273091936e-02 -1.350000066789093208e-03 2.338999917824741582e-03 1.994800000511543284e-02 -1.889999102805992406e-04 3.080000061568859333e-04 2.047400000073559823e-02 1.335999937641365633e-03 2.311000121386143445e-03 2.036699999031706815e-02 1.979997620453766160e-04 4.657000035650529952e-03 2.069899999425529880e-02 -1.096500113645820090e-02 1.749199920445723699e-02 3.378100004305286536e-02 -5.709000224968693513e-03 4.601999590499802548e-03 2.229800002691602334e-02 -3.849998417576079709e-04 -6.370000092000420748e-04 1.994000000276142937e-02 1.706199924577514807e-02 1.226600132179212974e-02 3.142399989356800538e-02 2.331999890605538153e-02 1.330100174777547328e-02 -1.594000014200908436e-02 -6.163000167208430337e-03 1.869995061918653366e-04 -2.772999996616792168e-02 -6.390001633354030651e-04 6.849999314899557446e-04 -2.020499999715704223e-02 -1.651600109012888243e-02 1.380099874250205819e-02 -8.397999922619560353e-03 2.010999477670907028e-03 5.369000131052088960e-03 -2.106400001646339601e-02 1.371998966119297551e-03 1.328900009854754212e-02 -5.223000020847311069e-03 -2.009000192992840828e-03 9.969998267797351016e-04 -2.130299998990648966e-02 -1.368000014093834898e-03 -1.274000123448716486e-03 -2.000899999117626907e-02 -1.719000195480319257e-03 1.091999849562553734e-03 -2.045199999160214263e-02 4.989999850715907828e-04 -1.277999982452794180e-03 -2.021500000147784248e-02 -3.370002074412730949e-04 1.289999954628955753e-03 -1.990599999942836013e-02 1.565999612023364490e-03 3.660000098319592110e-03 -2.014000001229998213e-02 -2.126999954254398233e-03 -1.918000178837345540e-03 -1.799199998634342171e-02 9.769999213278873426e-04 -4.239999461487053262e-04 -2.006200000496937558e-02 2.125999808889006068e-03 1.047000140535698067e-03 -2.027700001278103653e-02 -9.830032247754847720e-04 3.950399988275357654e-02 -4.295000003403359745e-02
2.158012878415504349e-03 -1.703829998381818644e-01 -1.393999841720277395e-03 -1.600317523083089240e-05 3.996199997112191010e-02 -2.769900003982878403e-02 -2.148000111924042253e-03 1.357999835878078267e-03 -1.669999989499824661e-03 3.299998458032502556e-05 1.960000023879192288e-04 -1.080000003779350111e-04 -2.457000202355090999e-03 2.674999814168458299e-03 -7.999989109709656744e-06 -1.468900111406215916e-02 1.577799890340497724e-02 1.435400006532088456e-02 1.619099909819868635e-02 1.298100123899819519e-02 1.448499989766160317e-02 9.660000104667139289e-04 -1.299999268262998979e-04 1.149999947976735459e-04 8.499995827079914149e-05 5.600000065414432278e-04 1.129999989714414502e-04 -1.328000038716014740e-03 5.729999003990761874e-04 8.370000067580118637e-04 -8.500035632025987071e-05 4.932999996605002928e-03 3.036999995541730078e-03 1.327999961744926599e-03 5.680001012880235784e-04 8.519999921022701136e-04 -9.870003722371311228e-04 4.843999924288119006e-03 -1.065999999390460345e-03 -4.210001676661834420e-04 2.146999967202731230e-03 -9.579999998207286644e-04 2.220000318711501440e-04 -4.089999830402726161e-04 1.699999991831325781e-04 1.187999826726627390e-03 2.295000089902679216e-03 5.399999114999017523e-05 -2.745003228377968212e-03 4.247999978957098938e-02 -2.827000027280269709e-03 2.106008218162978927e-03 -1.072949998220084078e-01 1.873500009554963583e-02 2.736000032411182829e-03 1.108000227953737094e-03 2.105299998379091958e-02 -2.134999942511194362e-03 6.629998580064985856e-04 1.949900001112263651e-02 -1.659000012982036120e-03 1.661999894926464039e-03 2.042000000749730898e-02 9.239995562186993552e-04 7.148000087403637119e-03 1.754099998775968464e-02 -7.610002479887291189e-04 4.536999959663002603e-03 1.723699999966870483e-02 1.488000182113289683e-03 -9.399998673717629115e-04 2.011299999272539787e-02 -1.347000066768661453e-03 2.337999918041643466e-03 1.993800000509987277e-02 -1.849999104760185890e-04 3.100000064514159531e-04 2.046600000071152267e-02 1.332999937202496024e-03 2.316000121148264514e-03 2.035599999032863469e-02 1.939997621894695625e-04 4.654000035333026586e-03 2.068399999428037830e-02 -1.094700113498752944e-02 1.746999920578361579e-02 3.374600004297548250e-02 -5.702000224997940021e-03 4.600999591010236124e-03 2.227900002687838513e-02 -3.819998417907271844e-04 -6.370000089791445557e-04 1.993400000274487063e-02 1.703099924704652712e-02 1.224700131941762297e-02 3.139399989375810107e-02 2.328499890750339654e-02 1.328200174513041038e-02 -1.593800014179691180e-02 -6.159000167324926028e-03 1.899995065143639207e-04 -2.770999996619299618e-02 -6.360001629611238255e-04 6.809999317298319086e-04 -2.019199999716960944e-02 -1.648500108819561660e-02 1.377499874484060249e-02 -8.403999922764705463e-03 2.002999478170494618e-03 5.364000130469022583e-03 -2.104200001641424664e-02 1.367998966617237902e-03 1.328300009825301130e-02 -5.215000020819238712e-03 -2.002000193028184022e-03 9.989998273301232273e-04 -2.128199998994712711e-02 -1.365000013691956100e-03 -1.278000123203846053e-03 -1.999099999118883128e-02 -1.716000195521182655e-03 1.093999849809421847e-03 -2.043199999162069805e-02 5.009999848187484880e-04 -1.273999982292543581e-03 -2.020600000149287701e-02 -3.390002074561849349e-04 1.290999954488683110e-03 -1.989499999941831895e-02 1.564999612176272859e-03 3.659000098257946410e-03 -2.012600001229346292e-02 -2.124999955652734276e-03 -1.899000178679092869e-03 -1.798499998637344277e-02 9.809999211837945859e-04 -4.209999458312011465e-04 -2.004700000499445162e-02 2.123999808955244484e-03 1.047000140396424058e-03 -2.026500001276999516e-02 -9.870032206809879922e-04 3.945299988249401091e-02 -4.290700003396057810e-02
2.159012855796537018e-03 -1.700839998381072360e-01 -1.394999842024461289e-03 -1.400316966788766788e-05 3.989099997130813452e-02 -2.766400003976890454e-02 -2.147000111946121680e-03 1.357999835949713022e-03 -1.673999989505344432e-03 3.299998487180634218e-05 1.920000023859214891e-04 -1.100000003739395172e-04 -2.453000202047049983e-03 2.670999814471978432e-03 -6.999989127793573256e-06 -1.466400111250317113e-02 1.575599890527675656e-02 1.433500006520486286e-02 1.616399909932045298e-02 1.296500123694019693e-02 1.446899989782662183e-02 9.610000099317824417e-04 -1.229999272054501064e-04 1.139999948182806948e-04 8.599995865999013746e-05 5.550000066190715481e-04 1.149999989709159860e-04 -1.327000039105205890e-03 5.779999004727085984e-04 8.350000067474976561e-04 -8.300035527799580937e-05 4.918999996753266150e-03 3.033999995544674373e-03 1.325999961722846990e-03 5.680001011327675620e-04 8.479999921133097966e-04 -9.870003717778299060e-04 4.837999924289118278e-03 -1.064999999384466959e-03 -4.200001675204427932e-04 2.144999967277362671e-03 -9.589999998242507194e-04 2.210000316442593750e-04 -4.059999831159028546e-04 1.699999991856557876e-04 1.188999827110298483e-03 2.290000089979307794e-03 5.499999114946470030e-05 -2.737003222414794053e-03 4.240399979021498844e-02 -2.788000027248513889e-03 2.106008213326514365e-03 -1.072319998220213899e-01 1.872200009548670441e-02 2.733000032036903698e-03 1.112000227713860713e-03 2.103999998380348332e-02 -2.133999942728692992e-03 6.649998580701422775e-04 1.948700001111512009e-02 -1.658000012983683758e-03 1.660999894988109907e-03 2.040600000749278817e-02 9.239995566117624329e-04 7.142000087392649452e-03 1.752999998776567925e-02 -7.590002480273681925e-04 4.536999959807270014e-03 1.722999999965766499e-02 1.485000181999020447e-03 -9.389998676056457872e-04 2.010599999274095828e-02 -1.346000066921569606e-03 2.338999918103289600e-03 1.992400000509335356e-02 -1.889999105532965784e-04 3.100000061349106133e-04 2.045200000073360211e-02 1.331999937222927899e-03 2.315000121062645803e-03 2.034599999033515419e-02 1.969997627448329266e-04 4.646000035550926742e-03 2.067499999427180671e-02 -1.091700113352789790e-02 1.744799920801557228e-02 3.370900004283186591e-02 -5.698000225220959010e-03 4.602999591299772146e-03 2.226600002685430804e-02 -3.869998418348859388e-04 -6.370000093652868458e-04 1.992600000277246902e-02 1.700899924848572539e-02 1.222600131772678955e-02 3.136699989390051568e-02 2.325399890914905607e-02 1.325900174276889096e-02 -1.595500014160282365e-02 -6.161000167745586328e-03 1.959995063690966421e-04 -2.770399996618794908e-02 -6.350001630036350431e-04 6.819999318114554430e-04 -2.018599999717612600e-02 -1.645500108633410688e-02 1.374899874709053019e-02 -8.422999922904329806e-03 1.991999478085472192e-03 5.366000129649077174e-03 -2.103000001635552466e-02 1.369998966368267618e-03 1.328600009840027497e-02 -5.219000020833274890e-03 -1.990000193426767240e-03 1.004999828247674998e-03 -2.127199999001935793e-02 -1.364000014140218054e-03 -1.272000123127216666e-03 -1.998999999120034538e-02 -1.719000195596812877e-03 1.094999849582531208e-03 -2.043199999160513758e-02 4.969999848148763796e-04 -1.272999982582079422e-03 -2.019300000147179752e-02 -3.350002071095050673e-04 1.286999954799195045e-03 -1.988699999943640065e-02 1.565999612366172303e-03 3.657000098340568855e-03 -2.011900001229698781e-02 -2.121999957296167964e-03 -1.878000178462190884e-03 -1.799499998641097831e-02 9.769999212058738322e-04 -4.209999461297266737e-04 -2.004300000497237152e-02 2.120999809041914340e-03 1.046000140171531121e-03 -2.026300001275243776e-02 -9.800032146570956081e-04 3.937699988307336724e-02 -4.285700003392330093e-02
2.145012822553991026e-03 -1.696429998391460470e-01 -1.374999842387687830e-03 -2.200316096216942453e-05 3.978099997077300803e-02 -2.759400003961486741e-02 -2.136000110690231164e-03 1.342999836803621073e-03 -1.651999989551079882e-03 3.199998486628648198e-05 1.920000023092923564e-04 -1.110000003684196649e-04 -2.444000201080416199e-03 2.657999815149653805e-03 -9.999989164486880518e-06 -1.462100110977273756e-02 1.571799890850288442e-02 1.430900006500546683e-02 1.611399910186650866e-02 1.292900123312672005e-02 1.443699989813857464e-02 9.670000088839984407e-04 -1.089999267496708375e-04 1.159999947711772819e-04 7.999995836850882407e-05 5.590000061672876358e-04 1.169999990000396024e-04 -1.328000038839676020e-03 5.749999004040705049e-04 8.420000067560141259e-04 -8.700035460836319523e-05 4.909999996448748127e-03 3.031999995575743873e-03 1.327999961392726776e-03 5.720001012790336880e-04 8.429999920982746099e-04 -9.840003706858869992e-04 4.823999924522002179e-03 -1.058999999387042444e-03 -4.310001677898446406e-04 2.148999966451423192e-03 -9.529999997675278264e-04 2.260000314504877401e-04 -4.029999827317582426e-04 1.759999991550598836e-04 1.179999827115818479e-03 2.290000089299634462e-03 5.599999119914340348e-05 -2.739003214114826834e-03 4.229899979012866074e-02 -2.723000027132591906e-03 2.102008207082322905e-03 -1.071489998223179169e-01 1.872800009542588059e-02 2.729000031101741063e-03 1.124000227406345273e-03 2.103499998381357788e-02 -2.123999943025694104e-03 6.689998588274437144e-04 1.948800001105592192e-02 -1.656000012557501400e-03 1.654999895134376007e-03 2.040100000748773859e-02 9.289995570600242079e-04 7.136000087769801825e-03 1.752899998774407053e-02 -7.600002478059972267e-04 4.533999959730641675e-03 1.722899999966618495e-02 1.487000181858799761e-03 -9.369998674523875816e-04 2.010799999272792210e-02 -1.345000066893970456e-03 2.338999918183914343e-03 1.992900000508783173e-02 -1.879999105218251466e-04 3.090000062025498426e-04 2.044400000072908036e-02 1.328999937497849513e-03 2.311000120830760448e-03 2.034099999035570913e-02 2.029997637705373606e-04 4.632000035998715126e-03 2.066899999425267365e-02 -1.087500113180825748e-02 1.742299921116107625e-02 3.367800004262500035e-02 -5.706000225036579783e-03 4.600999590700723292e-03 2.227200002690046463e-02 -3.809998416300746358e-04 -6.400000089155008769e-04 1.992200000274234328e-02 1.696699925022579838e-02 1.220000131450936325e-02 3.132599989415831704e-02 2.320999891105859914e-02 1.323200173941718912e-02 -1.597900014133298019e-02 -6.165000167386219809e-03 1.929995060905486596e-04 -2.767999996616287220e-02 -6.360001625592454251e-04 6.769999317478116781e-04 -2.017399999716561199e-02 -1.641200108458686774e-02 1.372399875031666064e-02 -8.448999923116711983e-03 1.971999478260460202e-03 5.365000128154451438e-03 -2.101200001624412700e-02 1.364998966709427648e-03 1.328200009802911821e-02 -5.212000020801679442e-03 -1.969000193644843046e-03 1.009999829864877911e-03 -2.124299999014027038e-02 -1.364000014122010614e-03 -1.271000123110235759e-03 -1.997299999120134492e-02 -1.724000195897686149e-03 1.099999849218364191e-03 -2.041799999158253054e-02 4.939999848165239687e-04 -1.271999982794985804e-03 -2.017900000145623693e-02 -3.360002068809665493e-04 1.284999954737548996e-03 -1.987299999942888223e-02 1.575999611951029800e-03 3.663000099103863594e-03 -2.011200001235817839e-02 -2.115999960225316279e-03 -1.840000178018398255e-03 -1.800499998648205299e-02 9.699999206505103980e-04 -4.129999466501485636e-04 -2.003400000494172384e-02 2.112999808984491329e-03 1.048000139583469886e-03 -2.024600001271027738e-02 -9.750032071173026947e-04 3.928299988352942917e-02 -4.277900003385700506e-02
2.151012787959491381e-03 -1.691849998386842913e-01 -1.366999842878292371e-03 -2.003149097611025051e-06 3.962499997229760457e-02 -2.758200003956944035e-02 -2.131000111021998968e-03 1.345999837162793582e-03 -1.670999989581675770e-03 5.299998232632907694e-05 2.250000038895366629e-04 -1.190000005172995473e-04 -2.434000201010306022e-03 2.656999815904957478e-03 -1.099998921868655767e-05 -1.456200110715657331e-02 1.568099891293211340e-02 1.427600006471675329e-02 1.605599910223584267e-02 1.292200122871119648e-02 1.440799989846571968e-02 9.700000089894524622e-04 -1.119999265447553310e-04 9.399999475761434021e-05 7.699995925786465507e-05 5.460000059234159904e-04 9.999999902958457926e-05 -1.333000041197478138e-03 6.079999000508910399e-04 8.670000067506505349e-04 -1.010003545752440187e-04 4.909999995395918429e-03 3.037999995653021829e-03 1.298999962599515839e-03 5.540000990577878190e-04 8.149999922763301752e-04 -9.680003715619786694e-04 4.834999925724094150e-03 -1.066999999486347751e-03 -4.180001683153843853e-04 2.154999967421630542e-03 -9.659999998452792076e-04 2.270000307019294310e-04 -3.949999826820988240e-04 1.499999991415490084e-04 1.177999828943631939e-03 2.267000089164355938e-03 7.199999123315726775e-05 -2.750003203129161057e-03 4.215899978936864939e-02 -2.651000026932030969e-03 2.095008198283837900e-03 -1.070349998228792981e-01 1.869600009535064833e-02 2.739000030141203884e-03 1.134000228125689588e-03 2.099799998374838814e-02 -2.121999942156770416e-03 6.569998589717121343e-04 1.948100001105686901e-02 -1.666000011821053848e-03 1.642999894347108329e-03 2.037000000755492465e-02 9.339995574679991986e-04 7.129000088125977790e-03 1.750699998772346777e-02 -7.540002487797986324e-04 4.545999960172435704e-03 1.721699999962107708e-02 1.486000182255734934e-03 -9.439998675519909116e-04 2.008399999274043668e-02 -1.335000067848987745e-03 2.348999918904257425e-03 1.989300000502264645e-02 -1.849999114514676941e-04 3.210000064254451332e-04 2.044000000070053322e-02 1.315999936961270060e-03 2.317000119832584443e-03 2.032599999042147484e-02 1.949997647780345829e-04 4.617000035370699002e-03 2.064599999431181512e-02 -1.082400112957518715e-02 1.738799921494330394e-02 3.360300004237845584e-02 -5.704000224798071519e-03 4.594999590813026759e-03 2.223300002689541921e-02 -3.939998416482817963e-04 -6.410000099156750201e-04 1.990500000281510140e-02 1.690599925344980770e-02 1.215000130979503046e-02 3.122499989454497263e-02 2.314199891342356638e-02 1.320000173426434144e-02 -1.598900014092566324e-02 -6.167000168622254787e-03 2.099995059482780038e-04 -2.767099996616881677e-02 -6.220001636661001438e-04 6.919999328116296965e-04 -2.016899999725787346e-02 -1.637300108164774573e-02 1.368199875322328833e-02 -8.491999923290033045e-03 1.944999478344905776e-03 5.366000126141402121e-03 -2.098300001609609139e-02 1.365998966421818651e-03 1.328500009809375874e-02 -5.223000020810196660e-03 -1.961000193702266102e-03 1.011999830486901009e-03 -2.122599999018642478e-02 -1.349000013323196868e-03 -1.282000121981775095e-03 -1.997899999127315460e-02 -1.710000195416305248e-03 1.093999850282182133e-03 -2.041299999165381920e-02 4.999999841855303764e-04 -1.262999982332214379e-03 -2.017000000149834701e-02 -3.560002067241861429e-04 1.282999953225943002e-03 -1.987199999931649197e-02 1.577999612542807777e-03 3.657000099280095957e-03 -2.008700001236322225e-02 -2.101999963366443704e-03 -1.800000176980551259e-03 -1.802599998659928579e-02 9.699999215486814754e-04 -4.239999466381620544e-04 -2.002200000493073798e-02 2.110999810026755429e-03 1.034000139429212730e-03 -2.024900001268525179e-02 -9.850031965081406261e-04 3.914899988285903271e-02 -4.269300003366795909e-02
