-1.412881091960000049e+03
-1.412881093490000012e+03
-1.412881096249999928e+03
-1.412881100620000097e+03
-1.412881106439999940e+03
