6.179941171487161487e-04 1.619090457193989863e-01 3.257729654950288455e-03 -5.430305874030566526e-04 1.135011384488307301e-03 7.729617960977288238e-04 -5.615784472459732301e-05 3.500550961918960776e-04 3.882992753805493327e-03 2.487920060929005132e-03 -4.159975250886391307e-03 1.883160291223167802e-03 -1.511092903078481908e-03 -4.338967653661179001e-03 2.197999986066389525e-03 -9.851217207760337366e-04 9.504317702756790234e-05 2.990958540293691889e-03 3.290877548864317922e-03 -3.378960865425748722e-03 2.942181916248902147e-03 3.428782457370441769e-04 1.145042434836523321e-03 3.011997730912812678e-03 -3.635121356539714691e-03 -4.275956066126940756e-03 2.897912601128800700e-03 6.868950903174394021e-06 -6.395439550683768004e-05 3.217001189432301591e-03 1.587288284496332985e-05 1.704425054747168373e-05 3.122000407609432961e-03 -3.012931763437317213e-05 -3.695496200610707074e-05 3.174999300000239891e-03 -3.613284934746762767e-05 2.904629033120826912e-05 3.262998119860939343e-03 8.186927509050514237e-05 3.804546069139568215e-05 3.211002797369839120e-03 -5.513172727030417824e-05 -2.019541484580289492e-04 3.231000621257876671e-03 1.186809426918413416e-05 9.004594082974529687e-05 3.240999209638672791e-03 2.587021957698799527e-05 1.000451926214321189e-04 3.188999638001292943e-03 -4.813001687592290877e-05 5.804532145635854528e-05 3.193997220119727636e-03 8.486069023783327304e-07 -1.757947769607651417e-03 3.684024961804386288e-03 -6.097070364324820129e-05 2.298985392558069397e-05 -7.190028093920965840e-04 5.384858651049077865e-05 -1.731947796931273533e-03 3.685026751386715101e-03 -1.100916402192830768e-06 3.903514753376993132e-05 2.478999404041899290e-03 1.506850999295435796e-03 9.330509516842864365e-04 3.677048135051184680e-03 -1.519150150915495523e-03 9.170537180105374497e-04 3.704925140573892342e-03 -1.497152025659530131e-03 9.150543529634103416e-04 3.750926064745382146e-03 1.535849446269541658e-03 6.660513968715616254e-04 3.710053101388036036e-03 -3.704346945353368195e-05 2.601517085368458771e-05 1.067998123713847450e-03 -1.565493130731785212e-02 -8.936362261153645362e-03 -2.641651080859446638e-02 1.581208561962371695e-02 -9.231392882693588084e-03 -2.683722526273986733e-02 -1.439329719106859280e-04 -2.060232805901357099e-04 -1.650002941649449193e-03 -1.428903482997078995e-03 7.889677301138862432e-04 -2.355069374162416761e-03 2.371013396102858624e-04 1.803762128043606694e-02 -2.669924610355721081e-02 1.201076581882978573e-03 6.069725612608903049e-04 -1.868959698422814055e-03 7.107032003959869973e-05 -1.825025036684176181e-03 -1.761971232763290610e-03 2.820743740421601973e-04 2.297389053843212545e-05 -1.825988841111098049e-03 -3.439240669018168864e-04 4.009739411442627809e-04 -1.857019691529670233e-03 3.183035360053781352e-03 1.164985513190913051e-03 -8.458869018388948070e-04 -2.958742380041660242e-04 2.799565215955301012e-04 -3.083016020279749289e-03 -2.882977724401855450e-03 9.859947714025655424e-04 -5.281313769977199774e-04 -2.896739788343393233e-04 -3.885114343303792354e-03 -8.080956720923668235e-03 3.781603538370325885e-04 -1.253056468271459157e-03 -3.961966839097584743e-03 -8.584266905692880566e-05 -7.460549140775438095e-04 -3.877992921776666959e-03 6.813439734653282834e-05 -3.400469391787289174e-04 -3.306992407468363222e-03 -5.287450694643506198e-05 -1.104365446540425338e-05 -3.082001999384688731e-03 -9.931160715527874954e-06 -1.810240093371368649e-04 -1.693997839458583846e-03 1.412450240206689788e-05 2.395664751520897826e-05 -3.056999767332625306e-03 -1.687552656444072209e-05 -1.304332820818016386e-05 -3.057000505101761453e-03 6.134904170151252982e-06 -1.090470040786175584e-04 -3.314998207217056438e-03 -4.486684749229937483e-05 4.595368801714732210e-05 -3.269002481576562934e-03 -4.875417732622770277e-06 -3.004338013580633030e-05 -3.059999775426780391e-03 6.013052591394223265e-05 1.995451318407529497e-05 -3.204997837324839467e-03 4.813209283020868854e-05 -1.110460586963744282e-04 -3.245996468649925415e-03 6.513597780091583004e-05 1.395260944512071013e-05 -3.338997548529436948e-03 -1.018629484558191268e-04 -1.904764259166927671e-05 -3.366003881020279958e-03 5.185962225787857854e-05 -1.490830340071729217e-02 -2.139678654124820695e-02 2.775024579774185325e-03 -1.628011175550267420e-03 -6.348639176489318274e-04 -2.843966022397103558e-03 -1.697010065136435189e-03 -8.670917496300100400e-04 -1.299012043426448978e-02 7.515705986545845145e-03 -2.145563554470254070e-02 1.295488006724411154e-02 7.351685444882386303e-03 -2.147057671705223866e-02 5.200320770020079169e-05 4.039989526200013048e-04 -7.100361026618120109e-05 -2.859842855113585653e-04 -1.610052912092650701e-04 -3.890093631818873979e-04 3.255944006843502961e-08 3.251989550636978556e-03 -7.370461054016812967e-04 3.020045964030762618e-04 -2.140018952453229283e-04 -1.169846681528177853e-04 1.485969141124150305e-03 -1.339990785250994541e-03 7.320795087073393367e-04 -1.296037529959872961e-03 -1.073986210935088271e-03 9.009624518573484649e-04 -1.902678029224836133e-04 -2.471391335000976477e-02 6.101342646613136349e-03 -6.302915308797502406e-03 -1.316502814024462890e-02 -2.333070011099789513e-03 2.960402421716940664e-04 1.727986228264363723e-03 -9.550124449155743094e-04 6.003080232746662269e-03 -1.374903638631250549e-02 -2.234560620583183818e-03 3.280246843610812074e-04 -3.316009755611341262e-03 -6.699396294743456244e-04 -1.991036442707748346e-03 -1.609986191277153504e-03 8.639417501814359744e-04 1.657965501813929562e-03 -1.618989728963396522e-03 8.160904682116525014e-04 1.040036852122167059e-04 1.299986709093023005e-04 -8.799760805892993998e-05 -6.199318543899121699e-05 6.999769502467455967e-05 -1.660035169818986048e-04 -4.099590750908279068e-05 2.599861432068496998e-05 -1.000020380837860932e-04 1.500089741318622322e-05 1.999676343358047119e-06 -2.199941752230902096e-05 -3.699805168754217272e-05 -1.120006799076195020e-04 -4.999991871550307391e-05 1.300267032604183429e-05 -2.200094591122614670e-05 -6.599915865678571017e-05 2.899924822004482086e-05 2.800024666840065707e-05 1.900078390964293212e-05 -9.997125267108419194e-06 -2.100099879139218868e-05 -7.100010940947687141e-05 -1.999838057767470493e-05 -6.400056562323483780e-05 -4.099990700204689855e-05 1.598272011331038078e-02 -1.605691944996006509e-02 6.564878487609506277e-03 -2.731618952186494476e-03 1.562218066028416225e-03 1.522986663153128202e-02 -1.327955091040820650e-02 -1.747280255317833902e-02 1.319270698361489288e-02 -1.067568648737205958e-03 -3.882146359519255546e-02 3.777550696559045518e-02 -1.641672629064896364e-03 -4.213765674256102732e-03 1.643699290689875844e-02 2.715120718692739556e-03 -4.596961130360665074e-04 2.158411709953837396e-02 9.371455759193332872e-04 -2.933704049608842727e-03 2.092607977426358401e-02 -1.083913608016179222e-03 -1.761681540865806320e-03 2.240198085971260508e-02 1.601615636578242186e-04 -4.045709310716008242e-03 2.051206390022009343e-02 2.614271591143009477e-05 6.729847815592665571e-05 2.105400012998106390e-02 2.915016936482963940e-05 1.729586709763192919e-05 2.087000096120283574e-02 -4.685006233501891511e-05 8.529602584305214950e-05 2.087699690232372798e-02 7.117174432303948264e-05 8.288319981158178608e-06 2.034000279957114132e-02 -5.085610238673491626e-05 -3.570190105464201468e-05 2.102299845481398269e-02 -3.851800929553084135e-06 -1.067034548724075878e-04 2.091600137541465773e-02 1.211563682590884017e-04 2.929364003588064052e-05 2.071800453752927623e-02 -1.148407631141448103e-04 -5.170719597012698527e-05 2.064599607587418520e-02 1.416917971598674257e-05 -4.271075635960703550e-05 2.040200120149093105e-02 2.090651754944959748e-04 1.613253577361161524e-04 2.296000624741523916e-02 -1.159290802967495902e-04 6.032358479531183730e-05 2.281699444522566900e-02 -9.788231990043147121e-05 8.043074930064354625e-04 2.168298463099913378e-02 -6.048591902676310949e-04 3.362997094447416416e-04 2.110597062125729728e-02 -8.493285573188631753e-05 -1.846751918068782175e-04 2.290499918104229454e-02 6.991389902923721665e-04 3.022993122441779016e-04 2.115002420325020824e-02 8.613636692879065898e-05 -7.596995838491207072e-04 2.119401429811237567e-02 -7.558849198194105955e-04 -4.356914245452732717e-04 2.172297541706861082e-02 6.331203993292899412e-04 -5.056943835888649905e-04 2.159103297089696311e-02 -1.979124742908024669e-03 5.198698230054268031e-03 -2.139415431758964758e-02 4.708882233810866131e-04 1.997794509925863201e-04 1.255360164592299044e-01 1.469908026272147674e-03 4.356683889615417006e-03 -2.221500193293410655e-02 1.175887976343600394e-03 -2.363101518913588849e-04 -2.181094878677228982e-02 -5.764165194032254587e-03 -6.452863150784233278e-04 -2.051322559198039824e-02 4.594870598755152261e-03 -7.913069309363945708e-04 -2.139480169391030917e-02 2.188872252909947452e-03 -4.399306606241406431e-03 -2.150484851480525053e-02 -2.608128584528609899e-03 -3.550302325716006221e-03 -2.146805588968363557e-02 4.419290335457162029e-04 -6.393239817716425168e-04 -2.282697296129385794e-02 -2.141489274222827931e-04 1.203704178388998553e-03 -2.087702580560297713e-02 -1.446070021415935035e-03 6.686775247488292500e-04 -2.282506838677724262e-02 1.667921275820891894e-03 6.346781063726397113e-04 -2.261194110020091005e-02 1.156834701737869016e-03 1.359708846892664341e-03 -2.047197218942368654e-02 -1.234183544600449614e-03 1.560717127379714292e-03 -2.002007240312934228e-02 7.885028452774394130e-05 -2.088296674520000087e-03 -2.092096720115536532e-02 -4.971853265740293522e-04 -1.336283619529946183e-03 -2.003200131887014970e-02 1.158483458429998607e-04 -1.496295867060611377e-03 -2.086197408777469217e-02 3.868357865357614127e-04 -1.154291613281508040e-03 -2.054696790151196856e-02 -7.315560008795378845e-05 -3.629394699710234448e-05 -2.073700248366641338e-02 5.853662307951183402e-06 3.970278695678757728e-05 -2.096300034401911080e-02 6.284560496940490618e-05 -5.729447881632340680e-05 -2.076699664786974334e-02 3.286319566356096951e-05 4.569944821117150340e-05 -2.119699932940518824e-02 -1.415897673239013508e-05 1.757072402529490356e-04 -2.065000308690293288e-02 -4.815599235424871028e-05 1.387062177216914749e-04 -2.072400394676583019e-02 -1.241582993497161301e-04 7.070428442609192385e-07 -2.067000508506935605e-02 1.588447905479262201e-04 9.870577208961237535e-05 -2.074399495042051483e-02 -3.113552785797561766e-05 1.169904463690145212e-05 -2.122900145346595310e-02
6.229949972566357561e-04 1.617330453610568430e-01 3.232732353864154438e-03 -5.490292115088282786e-04 1.124010907142350760e-03 7.389617077596266235e-04 -6.515687290198685544e-05 3.430547629724784624e-04 3.858992486584487871e-03 2.497920828348083096e-03 -4.167975528093658191e-03 1.864160811871449098e-03 -1.521091217060704286e-03 -4.317968227122943869e-03 2.156999281162959390e-03 -9.891217740307317943e-04 7.904319433896086686e-05 2.991958604253573250e-03 3.305877399289266182e-03 -3.361960820461223041e-03 2.946182286035971265e-03 3.658790139289137930e-04 1.138042147450205608e-03 2.992998766754394972e-03 -3.678121199889277781e-03 -4.283956089168480981e-03 2.893910963558028477e-03 2.286960712478509829e-05 -5.795463488010685511e-05 3.201001755914212061e-03 -3.912767779829798357e-05 2.904449210018560784e-05 3.135997997816445098e-03 8.870015936925103962e-06 -3.954751523762758501e-06 3.192000420231435980e-03 -3.113202239763860702e-05 4.504600285870724406e-05 3.242998096639571753e-03 6.886919522675428518e-05 4.004549922573480761e-05 3.213002239641388723e-03 -4.513039130163136610e-05 -1.599546099816762199e-04 3.199000433030069288e-03 -5.130698979411978680e-06 7.104552880873446702e-05 3.210998786789597513e-03 1.586940200920650243e-05 4.404546983515101189e-05 3.208000024729873445e-03 -1.612946718361422041e-05 3.204509791396756529e-05 3.179998891821828478e-03 -3.515359671954611058e-05 -1.815946989990788489e-03 3.737024318114757875e-03 -1.297118841527210977e-05 2.798998647480550753e-05 -7.070009256912154674e-04 3.784840875250488712e-05 -1.750947727690238022e-03 3.689026369226884941e-03 -5.010364700855344822e-05 3.603613581317334171e-05 2.545997451191201952e-03 1.568848689126160940e-03 9.470517112714491514e-04 3.734050461202278234e-03 -1.528151080435190138e-03 9.260540511458888960e-04 3.727924646464980153e-03 -1.545152806367840496e-03 9.060546599262450478e-04 3.769924237726737619e-03 1.549848754028631138e-03 7.180516411046897760e-04 3.728052934219518513e-03 -1.504288370855059363e-05 4.601495513661784509e-05 1.053998736030316991e-03 -1.566093048270961879e-02 -8.923362540012887492e-03 -2.643651123721190918e-02 1.579408737847050673e-02 -9.221393478245866124e-03 -2.688022613745284783e-02 -1.219314080819690772e-04 -1.850238365743919614e-04 -1.688002343488432654e-03 -1.414903688180037819e-03 7.869677900411184250e-04 -2.350068775719622513e-03 2.301019911495318581e-04 1.803762105907231322e-02 -2.671524638858829501e-02 1.195077534922318364e-03 6.279722398674568136e-04 -1.891960240459572866e-03 5.107063171858402953e-05 -1.843025134444801301e-03 -1.769971791973133949e-03 2.810748752052641365e-04 -1.302629298628222871e-05 -1.838988371420379646e-03 -3.239229400556338468e-04 3.839735285077832370e-04 -1.885018636064640218e-03 3.177034579285655056e-03 1.103985773095355997e-03 -8.278862813371627759e-04 -2.858735246266770808e-04 2.549562585677723667e-04 -3.101015258610419038e-03 -2.881978034522916527e-03 9.539948698673630370e-04 -5.211308825949450109e-04 -3.156726780966150146e-04 -3.888114776635041240e-03 -8.112957737102761274e-03 4.301609027541609910e-04 -1.228056693301119362e-03 -3.974965076045328463e-03 -1.118432532064660004e-04 -7.120546810561408958e-04 -3.862994462576698103e-03 2.613327130217008975e-05 -3.220465093164347702e-04 -3.278994372969881027e-03 -3.687431116625895105e-05 3.095627629124171615e-05 -3.086001943313418372e-03 1.706663955314422092e-05 -1.820232648769826676e-04 -1.639996725868038538e-03 1.912333792362148159e-05 -7.042959418376476621e-06 -3.028999124243730856e-03 -2.187779282301159154e-05 4.957469661526350008e-06 -3.001000963957817409e-03 1.213286498888033570e-05 -1.130462998864230822e-04 -3.264997906227376078e-03 -4.586735259659333410e-05 2.495385893580487683e-05 -3.257002224575535846e-03 -7.876736468484675695e-06 -5.004292409535001155e-05 -3.027999614063811486e-03 6.112973811282983942e-05 1.954781781005645673e-06 -3.185997541421908483e-03 8.131546278829145666e-06 -8.104582889041745211e-05 -3.231998522829888140e-03 7.813520644489387761e-05 1.695286864398014989e-05 -3.319997061709325029e-03 -7.886385684557004874e-05 1.695266548508327897e-05 -3.343003454861569624e-03 2.485323385979415397e-05 -1.479830112531802314e-02 -2.123778920041297438e-02 2.781025485030570732e-03 -1.616011492160951846e-03 -6.568638434365355007e-04 -2.813964056068062915e-03 -1.682010769162009750e-03 -9.150907406263078091e-04 -1.289612982991144956e-02 7.477709173840971051e-03 -2.122563117840133365e-02 1.282587438913215458e-02 7.328687516604764571e-03 -2.133158164408268873e-02 8.100152871882588808e-05 3.919995112039323468e-04 -3.000225926645074448e-05 -2.719885111124307792e-04 -2.010038418542563633e-04 -2.860082260751816634e-04 2.003267921029869202e-05 3.196989478271418904e-03 -7.410445112039498869e-04 2.610042370016829377e-04 -2.050017355432295527e-04 -1.079864653159511544e-04 1.437969788779534406e-03 -1.344990974511400946e-03 7.160776250101766110e-04 -1.281035715556703546e-03 -1.096986860678503392e-03 8.559633888005069302e-04 -1.562678005500001241e-04 -2.460691334828683102e-02 6.103342514099523684e-03 -6.250912302525650326e-03 -1.312202921594382565e-02 -2.406068503191499675e-03 2.940409923870898460e-04 1.749985974627821716e-03 -9.730128382513400726e-04 5.962081719912374657e-03 -1.367003685044046284e-02 -2.269563410148857634e-03 3.160282169226409188e-04 -3.277010965509720691e-03 -7.559406709773887519e-04 -1.940036136547683768e-03 -1.582986330457246621e-03 8.569434441517365325e-04 1.621963490092565626e-03 -1.587988991888891798e-03 8.660885627038648329e-04 3.400028741836357053e-05 1.069999024783670585e-04 -5.000132507105033848e-06 -2.599653241346541643e-05 5.999882941704085752e-05 -8.400190932985079526e-05 -7.997943603434883652e-06 -2.600071680097317637e-05 -5.099995709754926967e-05 2.799908531253285341e-05 -2.399971000997490119e-05 2.200148042970331201e-05 -3.700181835275257440e-05 -8.599936137527183029e-05 4.299971257619413575e-05 6.000427551353060129e-06 -2.600016065110483069e-05 -1.099938704281757091e-05 1.899921612680717113e-05 3.900026867504865265e-05 2.000022074480402933e-05 3.000256773875917802e-05 2.999083308705004813e-06 -6.299882084919220231e-05 -4.999894278383666766e-05 -2.000329472670024141e-06 -2.600200766285933640e-05 1.592371938826989478e-02 -1.594291912021887636e-02 6.584874468795662121e-03 -2.726614790045652631e-03 1.573216615977199263e-03 1.512786667927495769e-02 -1.322055062144343075e-02 -1.736380267027507959e-02 1.318770784077353923e-02 -1.042561233547266170e-03 -3.860846613843649938e-02 3.759750496391357777e-02 -1.632669334602187324e-03 -4.218766829703989203e-03 1.635599334435053342e-02 2.688124862837932682e-03 -4.716975380290875709e-04 2.148211617030337806e-02 9.561487341318865556e-04 -2.904705156178936151e-03 2.084908013687619341e-02 -1.101910722306623366e-03 -1.768682533394640675e-03 2.233098022604763228e-02 1.511635174820359032e-04 -4.046709984203119073e-03 2.046406354795481802e-02 2.145275050687201583e-06 7.297589574979843370e-06 2.099000000340594044e-02 6.151842856213740868e-06 2.229530381642956692e-05 2.082899995377255828e-02 -2.848542404664133124e-06 5.029545263852588905e-05 2.083899919029822204e-02 4.917091582016329507e-05 -9.711379235204521242e-06 2.036000215889356701e-02 -5.855344374586126370e-06 -3.702191493011535162e-06 2.100499983358058292e-02 -3.285056750171651019e-05 -3.970384332833897466e-05 2.088699924462678048e-02 3.115739027260213827e-05 3.429335606014653461e-05 2.069300080178709811e-02 -6.384034732873574455e-05 -4.070737768199349672e-05 2.063599799669148943e-02 3.517190329340917989e-05 -4.871172271421076453e-05 2.033500214175766596e-02 1.590744872625979886e-04 9.232213599994639982e-05 2.273000518985216975e-02 -1.229210512333001385e-04 6.932079724969107649e-05 2.261999403276297033e-02 -3.787390251489673477e-05 7.373044970519848987e-04 2.147498802435371043e-02 -5.918516522465514830e-04 2.902970622004914097e-04 2.091997180297838765e-02 -5.492640384185631356e-05 -1.616774553907489721e-04 2.274700007672614613e-02 6.521449089574785215e-04 3.202972932628550128e-04 2.100502203430525475e-02 1.514356598203304763e-05 -7.187020235525109525e-04 2.101801082580724914e-02 -6.558757287211290036e-04 -3.986946928525755525e-04 2.149797896478563425e-02 6.271277228418617802e-04 -4.616969167206937596e-04 2.141203210291666229e-02 -1.921131733619862742e-03 5.215700623219580306e-03 -2.122215219696215599e-02 4.479078336314128617e-04 2.297726494789038398e-04 1.250550150977645658e-01 1.439897968249546824e-03 4.356687415020756189e-03 -2.196800315478925417e-02 1.197880155573350551e-03 -2.393074469802621744e-04 -2.161894784855875745e-02 -5.741173884045295758e-03 -6.662833132148055903e-04 -2.030022435786579468e-02 4.544863327763468824e-03 -8.203043681360885605e-04 -2.121680331896319202e-02 2.205866204296449886e-03 -4.375304507063250761e-03 -2.135584816295561447e-02 -2.618139001219623591e-03 -3.540298688371440027e-03 -2.121205643890776080e-02 4.239220569762541975e-04 -6.563215432729906876e-04 -2.265597345340615923e-02 -2.001569502729127667e-04 1.098706932107733304e-03 -2.068202374702717006e-02 -1.462078197697180143e-03 6.276803728399736647e-04 -2.262506845720847759e-02 1.665914359548336526e-03 6.426805181630371828e-04 -2.244194129522275247e-02 1.063827729173460589e-03 1.399711358288076822e-03 -2.029997654373326757e-02 -1.177190829760220003e-03 1.565719620573799084e-03 -1.984107015309604510e-02 1.158414019188819017e-04 -1.991293584385656502e-03 -2.070096706993144325e-02 -5.471949922595384028e-04 -1.355280220240722084e-03 -1.979500308575551232e-02 7.884172796610296554e-05 -1.471293527111629772e-03 -2.069897594904179447e-02 4.698280393208637191e-04 -1.167288984487759159e-03 -2.035696433754702675e-02 -6.815966749964233364e-05 -8.229254730570484345e-05 -2.063800162797707269e-02 8.514962718427096321e-07 2.970354229593072243e-05 -2.091000040589500314e-02 6.384261981007887461e-05 -7.329344461864506066e-05 -2.069399638037253825e-02 1.186140161329740796e-05 4.270008847738919396e-05 -2.115300014205067497e-02 3.183819782002693616e-05 1.557081825050221429e-04 -2.058100093025265129e-02 -5.615841835939747894e-05 1.607070746511646763e-04 -2.066400458449920916e-02 -1.511603212650001538e-04 1.870777287311068689e-05 -2.062000643977855707e-02 1.348416010465429589e-04 1.337069109238254213e-04 -2.066499642401610493e-02 1.886016822868896031e-05 2.770050833178917043e-05 -2.112299964436615066e-02