-1.412881087109999953e+03
-1.412881088600000112e+03
-1.412881091369999922e+03
-1.412881095749999986e+03
-1.412881101649999891e+03
